LAMMPS data file via write_data, version 3 Mar 2020, timestep = 4499500

4000 atoms
2 atom types

-1.9341330651703252e+00 3.8034133065174892e+01 xlo xhi
-1.9341330651703252e+00 3.8034133065174892e+01 ylo yhi
-1.9341330651703252e+00 3.8034133065174892e+01 zlo zhi

Masses

1 63.546
2 91.224

Atoms # atomic

2208 1 -3.6332499014129205e-01 -2.8105704936301135e-01 6.6802809272832020e-01 1 0 1
1859 1 2.1290737752558000e+00 -6.9270263398876852e-01 -4.3012990054769773e-02 0 0 0
2050 1 1.7027997512790316e-01 6.1655720402080583e-01 -1.5371434876651981e+00 1 2 2
3861 2 1.7148026700831536e+00 1.9136710060771942e+00 8.3196376966614460e-01 1 0 0
3194 2 -1.6609457431191297e+00 1.9650222857431658e+00 -3.5691490268471959e-02 0 0 0
2986 2 4.6786420573277532e+00 -8.8379113013767530e-01 -7.0010589967525960e-01 1 0 0
731 1 4.0245008129210378e+00 4.4984535707142781e-01 1.5668820118358893e+00 0 2 0
2454 1 6.8298930353572782e+00 4.0011584787284615e-01 2.9394493014931955e-01 1 0 1
298 1 5.4409689350304120e+00 1.4980528549843215e+00 -1.5019860975540404e+00 1 0 2
738 1 6.1091823015363325e+00 -1.3919384900702179e+00 1.8613195317834061e+00 0 2 -1
500 1 9.2947287674998886e+00 3.5653376266034398e-01 -9.8116661583591491e-01 0 1 1
1337 1 1.0609110942373523e+01 -1.4032224095722414e+00 1.2998699363528399e-01 -1 1 0
134 1 1.0552971923069327e+01 1.1263991724104780e+00 9.4660090428612831e-01 -1 0 1
1263 1 1.2526911514422242e+01 -3.9330607061508815e-01 1.4395100837767347e+00 -1 1 0
3603 2 1.2196666621573485e+01 5.0481251850195141e-01 -1.3033284042125934e+00 0 1 1
2949 2 8.7067866207699947e+00 -4.9642653640078360e-01 2.2699465093427369e+00 0 0 0
65 1 1.4261070228821257e+01 1.2970828654002453e+00 6.1232044781618722e-01 0 0 1
3217 2 1.5375579449359375e+01 -1.0146832849485790e+00 1.4509496376013828e+00 -2 0 0
3560 2 1.6940245186382477e+01 1.3190310128971761e+00 -6.8558646098046094e-01 1 0 1
554 1 1.7127182076007134e+01 -1.4224727719525831e+00 -1.0707607757030968e+00 -1 0 -1
587 1 1.6682622950814007e+01 1.1517086218078147e+00 2.0799876899792817e+00 0 -1 0
1527 1 1.4879415688858291e+01 -3.7680467213068325e-01 -1.4321535966879635e+00 -1 1 1
1423 1 1.4510613377527722e+01 2.2636484141610476e+00 -1.6944785707431829e+00 0 0 0
812 1 -7.5293426743132752e-01 4.4897207969557114e+00 -7.5150942074972971e-03 1 1 2
3418 2 1.5537300504377192e+00 5.4967902148667198e+00 -9.1763222246732101e-01 0 0 1
1016 1 7.0144819943540204e-01 5.6690000025930978e+00 1.7714032120926007e+00 1 1 -1
1733 1 -1.2010684220610979e+00 6.6099833195360667e+00 -1.2045007548499198e+00 -1 0 0
1817 1 7.7680657005008147e-01 2.9778644340299190e+00 -1.4819250097539340e+00 -1 -1 2
1985 1 2.9418537519800854e+00 4.4937574002205212e+00 1.1862399204135730e+00 1 1 1
83 1 -8.8098382847620416e-01 3.7859199872740774e+00 2.3429859440613061e+00 0 -2 0
638 1 3.3104830652415620e+00 2.9589270651710313e+00 -1.2635318817260315e+00 0 0 0
3534 2 5.0810953956283642e+00 3.0615051720401265e+00 7.6329271519171549e-01 0 1 1
475 1 5.2059970853709814e+00 5.9280658565568736e+00 1.3368695995507158e+00 -1 -1 -1
123 1 6.9950281573919337e+00 5.1630552701648309e+00 -2.2562762415225146e-02 0 0 1
2268 1 4.2811443406658052e+00 5.2310006823513238e+00 -9.5454173807012499e-01 2 0 -1
2177 1 1.0483372740225686e+01 2.5862706240003162e+00 -1.2316200774282855e+00 0 1 1
2902 2 8.1688577414410855e+00 2.6010577059903754e+00 1.8857593050315202e-01 0 -1 1
3198 2 8.9675868215605838e+00 5.5100239769644581e+00 2.0832257464688668e+00 0 0 -1
2100 1 1.0485243971430155e+01 3.5530056481077494e+00 1.2299585945709541e+00 -1 1 0
2142 1 9.4856458296841737e+00 4.8693296797445909e+00 -7.7626298441347652e-01 0 1 0
223 1 1.1325553665706607e+01 5.9533187177531515e+00 5.0134906119464873e-01 0 0 1
3437 2 1.2801983803687801e+01 3.6388752271964373e+00 -1.2701034776383979e-01 1 1 0
3501 2 1.4128006451343840e+01 6.2161573604837344e+00 1.1439156344172705e+00 -1 0 0
3197 2 1.5108810204387456e+01 3.5052177242598415e+00 2.2159278342605413e+00 0 0 1
342 1 1.5757268613135150e+01 4.1609108124992318e+00 -4.0788057212349704e-01 0 1 1
3594 2 1.7687638465673707e+01 5.9165405103625783e+00 5.8760458786126080e-01 0 0 1
1945 1 1.7691738601253547e+01 3.2425997316231863e+00 1.1307878022883231e+00 0 0 0
928 1 2.1875027512526213e-01 7.6525979245571065e+00 4.4886983845026274e-01 0 1 0
317 1 1.3548600776803541e+00 9.7367349388376940e+00 1.1530857961614771e+00 -1 -1 1
1602 1 2.0323103247308407e+00 8.1989395070071147e+00 -1.1014553278604946e+00 0 1 0
3204 2 2.8585026541157692e+00 7.3204274584404914e+00 1.3896252533431035e+00 -1 0 0
3293 2 -1.4422909744331553e+00 9.6636264545130111e+00 1.0331728945194563e+00 1 0 -1
2611 2 -6.1820028141489658e-01 9.2760143108527391e+00 -1.8255062684838510e+00 0 0 1
1236 1 1.8008524779177005e+01 9.3907632872784852e+00 4.1256317093369663e+00 -1 0 0
3507 2 5.2667396693498825e+00 7.7037167074809325e+00 -8.2955817138117216e-01 1 1 1
1501 1 7.2959907562130528e+00 7.5473233709227525e+00 9.5422108654395243e-01 0 1 3
2519 1 5.2518436428135526e+00 8.7837581356904675e+00 1.8861031989971790e+00 -1 -1 0
3661 2 3.7136546773278720e+00 1.0185276502358745e+01 -1.3266771516769937e-01 2 0 0
1036 1 6.5928691091486424e+00 1.0218752659685782e+01 3.4756420884369099e-01 1 0 0
1794 1 7.8197880799603734e+00 8.6455297919705583e+00 -1.2972982726391160e+00 1 2 0
1631 1 9.7190081527436885e+00 7.8985796446097822e+00 1.2113931190167508e+00 0 1 0
2603 2 9.3210157322940006e+00 1.0450172118371057e+01 1.1159819375542313e-01 -1 0 -1
1062 1 1.2059647463249849e+01 8.3223449253117554e+00 7.4016402509286827e-01 -1 0 0
1896 1 1.2415891284546912e+01 1.0565444993200696e+01 1.5288321442643742e+00 0 -1 2
2368 1 1.1764826630806287e+01 1.0348589312285357e+01 -8.8976934697479937e-01 1 -1 0
3348 2 1.0377101008634471e+01 7.6531076063385264e+00 -1.6246472427967007e+00 0 0 1
44 1 1.2995226659077346e+01 7.0838767282321342e+00 -1.2317309377866357e+00 0 0 1
1213 1 1.5540935308380348e+01 6.9224850585058011e+00 -9.8074273689085689e-01 1 -1 0
3478 2 1.4350321388202680e+01 9.4538678203349988e+00 -3.0417669497454747e-01 0 2 0
958 1 1.6159200929204914e+01 8.0932397469452972e+00 1.0959919023700988e+00 0 -1 0
3258 2 1.6835186556670099e+01 1.0580511942635804e+01 1.7573159573099852e+00 0 0 0
3058 2 1.7558824610798727e+01 8.8253940244998610e+00 -1.2344268455654590e+00 -1 1 0
1011 1 1.6795811884052254e+00 -4.7924120450064867e-01 2.5852423283780759e+00 1 1 0
1232 1 -5.7363267281960173e-02 1.3162258145363972e+00 2.7252068696776366e+00 1 0 0
3522 2 -1.1348225817107109e+00 -1.3815896927902496e+00 2.9703604491364155e+00 0 0 -1
2266 1 -1.1027401228113087e+00 4.8574875596393641e-01 4.9751966995326740e+00 1 0 1
2939 2 1.7065809891960764e+00 1.1534954002238544e+00 4.8155221106339514e+00 0 1 0
2271 1 6.1170825873071522e-01 -1.5033727735770124e+00 5.2100487865132923e+00 2 1 0
2580 1 6.4919387929944161e+00 1.4596183714724598e+00 2.5955052672885541e+00 2 1 0
3406 2 4.9517397187789465e+00 -1.4584824605363034e-01 4.1641079218852077e+00 0 0 0
819 1 3.5236589452691138e+00 4.9944087428706485e-02 6.5561279421389553e+00 1 0 0
1458 1 7.7056420793202403e+00 6.7113078781152868e-01 4.9501757833291027e+00 0 0 -1
1116 1 7.2828239346057320e+00 -1.7458147719038546e+00 4.6332342300005287e+00 -1 1 1
1490 1 3.7500495205175222e+00 2.2913812621757694e+00 3.1732627950079664e+00 0 -1 0
1348 1 5.2602930869851336e+00 -1.7452512756327454e+00 6.4075826387591519e+00 1 0 0
1855 1 5.9203560656694476e+00 6.3652229703794871e-01 6.9229412150999270e+00 -1 2 0
77 1 9.4450010313287951e+00 -1.1557332651553207e+00 5.8039248725913648e+00 0 0 0
3607 2 1.0777440093288462e+01 1.3398760820311626e+00 5.8661982666248704e+00 0 1 0
322 1 1.1011239333816258e+01 -5.4611960252391323e-01 3.8801050895701001e+00 -1 -2 0
3422 2 1.2101780276006528e+01 1.8846171017403504e+00 2.9500940558122206e+00 1 1 1
3272 2 1.5600301637850091e+01 7.7636664185761877e+00 1.0900741947991877e+01 0 1 -2
265 1 1.8031520105301947e+01 -5.5012733035313821e-01 4.1538302525871877e+00 -1 0 1
1891 1 1.3388288105029796e+01 -1.3635725715538323e+00 3.5479042844172621e+00 2 0 1
1995 1 1.4512718739262045e+01 9.0132748321883716e-01 3.1978326071998566e+00 0 0 1
3684 2 1.3681155218541585e+01 4.4414873461330018e-01 5.7129313287292787e+00 0 0 0
231 1 1.5657433481566933e+01 -1.0081759777188930e+00 4.4845215742326880e+00 0 2 0
3767 2 1.6490435195131301e+01 1.8284312505252180e+00 4.8058828050437858e+00 0 0 -1
2649 2 1.6950705975790093e+01 -5.7473308920307775e-01 6.9715924925367538e+00 -1 1 0
1774 1 -7.7854781865102063e-01 2.9123900971299506e+00 4.6312178404807440e+00 0 2 0
2883 2 -1.3046167200553787e+00 5.7530424502364523e+00 4.6474685754928631e+00 -1 -1 1
1119 1 8.8486641442963876e-01 3.9214849756678314e+00 6.1666180821325831e+00 -1 0 -1
3047 2 1.6048218352507844e+00 3.9850823779087534e+00 3.4873908312604804e+00 -1 1 0
2533 1 1.2806291725472003e+00 6.0425702957143077e+00 5.1830868116358619e+00 2 0 -1
1306 1 6.7161212792386120e+00 4.0915189331244841e+00 2.5594916141402617e+00 0 1 -1
3665 2 6.0248177857582617e+00 2.8794402366569791e+00 5.0980354387495792e+00 1 1 0
207 1 3.3634639721859640e+00 3.5849674354405989e+00 5.4663291532564724e+00 0 1 -2
115 1 4.3846349330320535e+00 4.6684809165635315e+00 3.3321852570492565e+00 1 0 0
1542 1 5.0535972635415449e+00 5.4178022006802946e+00 5.7334480392332159e+00 0 0 0
3773 2 6.1576347608440081e+00 6.8344864909786285e+00 3.6709330340519184e+00 0 0 1
1749 1 3.2641459965486996e+00 6.8755693686068771e+00 4.0688109110428483e+00 2 0 0
1431 1 7.9484590709918699e+00 4.9270420247462727e+00 4.6283117906623739e+00 2 0 0
968 1 1.2335373312039700e+01 4.5462602364929809e+00 2.4728105210925539e+00 0 0 -1
3337 2 8.9631456096951378e+00 2.4837171726803069e+00 3.3468036293641497e+00 0 0 1
2046 1 8.8210552521511811e+00 3.1029400834779715e+00 6.2012639299465064e+00 0 1 1
1991 1 1.0665902676624674e+01 4.3724161240312904e+00 4.4957119346007630e+00 2 2 1
2782 2 9.6269958426198237e+00 5.8721500475074002e+00 6.5610830890596574e+00 -1 1 -1
206 1 1.2279092830195506e+01 6.0325754607199480e+00 5.8525700046067488e+00 -2 1 0
400 1 1.7943016897056758e+01 4.5824058029379238e+00 3.1339173122611301e+00 0 0 2
3279 2 1.3428378397972041e+01 3.4567467843232613e+00 5.1744937100875115e+00 0 0 0
545 1 1.3987647474529298e+01 5.7829359734038484e+00 3.8047200656056352e+00 0 1 0
2442 1 1.4904172256395832e+01 5.9407839837312419e+00 6.1368920486468355e+00 -1 0 1
2539 1 1.5979562896140163e+01 4.4992594601304994e+00 4.5536570489106802e+00 1 0 1
3843 2 1.7889200637888763e+01 5.2232121071876403e+00 6.5183036334306941e+00 1 1 1
321 1 1.5710074130445214e+01 3.7576218410718187e+00 6.9072943697512592e+00 1 0 2
3558 2 4.7542441206247599e-01 8.1572103733271994e+00 3.3442339128221237e+00 1 1 0
932 1 -7.2897357188138434e-01 8.9817443943409980e+00 6.2257596042939607e+00 0 1 1
497 1 1.1215204021954062e+00 1.0706756193482162e+01 5.5695167179031353e+00 0 0 -1
3650 2 1.8381951809301000e+00 8.3117854897378969e+00 6.3126665973965927e+00 0 1 0
2325 1 1.5827751216770768e+01 9.1015845627832039e+00 8.6737944168527417e+00 0 0 -1
2712 2 3.1540360969456067e+00 9.7949637524302684e+00 3.4110995652265199e+00 1 1 -2
769 1 7.1231092444805402e+00 7.0649552876932056e+00 6.2119994255296760e+00 0 0 0
911 1 4.6197791513715680e+00 7.8159872325939048e+00 5.9423007662154363e+00 0 1 2
1067 1 5.6591667453957601e+00 9.5798528453325726e+00 4.4081658197526492e+00 0 1 2
1934 1 3.6654191193197230e+00 1.0226657155748612e+01 6.1563428907797402e+00 2 1 0
3609 2 7.8414758446375874e+00 9.3998079687706291e+00 2.8512950468618667e+00 1 1 1
1566 1 1.0483327027291411e+01 9.7529850590832510e+00 2.6766319157161398e+00 0 0 0
1756 1 8.2128495796218566e+00 9.1086034717553659e+00 5.6172251138285176e+00 0 0 0
785 1 9.0180259746738898e+00 7.2244667216241893e+00 4.1891204439723637e+00 -1 1 0
3453 2 1.1652605442483580e+01 7.1400119814904208e+00 3.2173914365837790e+00 1 1 1
2041 1 9.5981062744284937e+00 1.0841462539591708e+01 4.6374535026130781e+00 0 0 0
3152 2 1.0908975245339107e+01 8.7268713777938203e+00 5.8270311036809606e+00 1 0 0
1179 1 1.2611672705694206e+01 9.9036135531035736e+00 4.1241524001966541e+00 -1 -1 1
256 1 1.4119660504977123e+01 8.7364194736936618e+00 2.4722972993444516e+00 -1 0 0
3184 2 1.6505795689805488e+01 7.0427385767049380e+00 3.5258153832562451e+00 -1 0 0
693 1 1.3775017718855693e+01 7.9067505504412594e+00 5.0788912576415211e+00 -1 0 1
1275 1 1.5442481744965370e+01 9.7583600810423707e+00 4.4123348860128218e+00 1 1 2
2922 2 1.6505648056068424e+01 8.1193084677944896e+00 6.3413731074465076e+00 0 0 0
1890 1 1.6485177625695229e+01 1.0729193735188908e+01 6.7249503221719404e+00 -1 -1 0
530 1 1.4407447566821027e+01 1.1343637728529020e+01 2.7013991399503077e+00 -1 0 -1
3557 2 1.3752350832722053e+01 1.0047086904684617e+01 6.9170708424329188e+00 0 1 0
2287 1 -4.7860267675570189e-01 2.0435833295533281e+00 6.9501398041676996e+00 0 1 -1
3824 2 -1.7478180407452468e+00 -1.0906846169301088e-01 7.6561716104216178e+00 1 1 0
847 1 1.0361539649935660e+00 -1.0782304073101256e-01 7.2037906668231244e+00 1 0 -1
470 1 3.2357046228048114e-01 1.0704252359866149e+00 9.2184387507458858e+00 0 1 1
1594 1 -1.5350036613385962e+00 7.9443318198707757e-02 1.0649898332211174e+01 1 0 -1
667 1 2.3110622998517183e+00 2.2391223835517922e+00 1.0346008144220292e+01 0 0 1
1223 1 2.7930464693636612e+00 6.1896141056047238e-02 9.1685228005693773e+00 2 0 0
1080 1 2.9805026112975819e-01 -1.5514971170300802e+00 9.3927181704711149e+00 0 1 1
3142 2 2.5443801772192165e+00 2.3233101480225145e+00 7.7270893955163444e+00 0 -1 0
2063 1 4.9526987810892855e+00 1.7656120752287596e+00 9.1918625719491587e+00 2 1 -1
629 1 5.1365895791741893e+00 -7.5972853037453447e-01 8.8453516241248078e+00 1 -1 1
2744 2 7.4567665440986524e+00 5.3687999245939588e-01 9.9281706582677334e+00 0 -1 -1
961 1 7.1186227373398925e+00 2.4745026363025957e+00 7.9435343088238177e+00 -1 0 0
1713 1 8.5307122701937868e+00 6.5543035506623326e-01 7.2853761405404676e+00 0 -1 0
3516 2 1.0668291069014261e+01 -5.6578029951196540e-01 8.5208862799536735e+00 1 2 1
1040 1 1.2373611233639540e+01 1.1614755055636823e+00 1.0531360087244957e+01 -1 1 -1
235 1 1.2597466694862849e+01 1.8556800723038576e+00 7.9854823463235007e+00 -1 0 0
3123 2 1.2005904322907549e+01 -1.4908743993708122e+00 1.1105923487109507e+01 1 0 -1
522 1 8.9327255549242466e+00 -1.7334913507958345e+00 1.0694475483856516e+01 0 2 1
844 1 1.0019895127153912e+01 4.8666769355450334e-01 1.1318445285400456e+01 0 1 1
1262 1 1.7772049216669149e+01 2.2790631074520986e+00 7.1284346664730247e+00 1 0 0
3416 2 1.4025267044073304e+01 -3.5461288892744069e-01 8.8739947662860619e+00 1 0 0
185 1 1.5342999776812761e+01 1.5626682796685474e+00 7.5654850079239573e+00 0 1 2
454 1 1.6723791042944946e+01 4.9327376466308026e-01 9.6703725238140681e+00 1 1 0
2556 1 1.4513647763908580e+01 2.2638767268659619e+00 9.7555780642573602e+00 1 1 -1
565 1 -1.9165392800719303e+00 4.5322057770224804e+00 7.0777575316766193e+00 1 0 0
737 1 -1.7056060525869676e-01 6.4908069764244338e+00 7.2942784924676189e+00 1 2 -1
2890 2 2.5928906120182402e+00 5.5706373983259372e+00 7.6303278981386669e+00 1 0 0
2859 2 1.5572624823053838e-01 3.7938913420752431e+00 8.8775951857956041e+00 1 -1 1
1821 1 3.7909929243183837e-01 6.1921843976375879e+00 9.7812428877518958e+00 1 0 1
505 1 -1.3414658639690664e+00 4.2782477180822713e+00 1.1019460544204776e+01 0 3 -2
353 1 7.1693892550561529e+00 4.7310889622217633e+00 7.0917273546680910e+00 2 -1 2
1307 1 4.9326699484045582e+00 3.7491270327053448e+00 7.5570027304505647e+00 -1 2 -1
611 1 3.7559857640988303e+00 4.1990034241247027e+00 9.6537837478131419e+00 0 1 0
3414 2 5.6271427514813386e+00 6.4797565583800605e+00 8.4938630436957983e+00 1 1 1
2971 2 6.5716372352659711e+00 3.8287406333752392e+00 1.0153266868813965e+01 0 1 0
1840 1 3.4122104336183128e+00 6.8302906039233520e+00 1.0138182168833174e+01 0 1 1
368 1 1.1209442176473690e+01 3.8037861064710974e+00 7.0049733517573056e+00 0 0 2
1563 1 9.3043701467297861e+00 4.7277023382932413e+00 1.1222059446770569e+01 1 1 -1
2661 2 9.8736748440554187e+00 2.6521482520746789e+00 9.2029500467847480e+00 -1 0 0
2288 1 1.0890004374515435e+01 5.3338386201235535e+00 9.2299049341877772e+00 0 0 -1
572 1 8.3996872660946824e+00 5.7384155936740227e+00 9.0866152403742664e+00 1 -1 0
1282 1 1.2447323980155279e+01 3.6537247189822510e+00 1.0269455802470215e+01 1 2 0
778 1 1.3086868019722781e+01 6.5613228513152944e+00 1.0107919928759831e+01 1 1 1
1639 1 1.7549735675454169e+01 5.8997086048325427e+00 1.0555484896044284e+01 -1 -1 0
2722 2 1.3466585746442140e+01 4.7184440841889037e+00 8.1164399703421779e+00 0 1 0
45 1 1.4853842399478250e+01 4.8218557186782496e+00 1.0401734852863443e+01 0 0 2
1992 1 1.5994483231478942e+01 6.0826095061360004e+00 8.4885995391029656e+00 0 1 0
3420 2 1.6941324008563580e+01 3.4395348971981807e+00 9.3700089625023431e+00 2 0 0
1314 1 1.5368175834670232e+00 8.0576669391181888e+00 9.0007626871273221e+00 1 0 1
3331 2 -1.0393183194804156e+00 8.5146108492626329e+00 9.1933353656977772e+00 0 0 0
2446 1 1.8436279697586122e+00 1.0420389080719206e+01 8.2503803362478294e+00 1 0 1
2350 1 1.4079322382195873e+01 7.5326461725925249e+00 7.9437479961508277e+00 1 1 1
2776 2 7.2294133027190757e+00 6.9843591282941553e+00 1.1348902461459021e+01 1 0 0
2924 2 3.2307752624784003e+00 9.6060201126346261e+00 1.0661783903562565e+01 0 0 2
2308 1 3.8250133419816033e+00 8.5314306699901294e+00 8.2088406630672885e+00 1 1 1
2497 1 5.7710362068010701e+00 8.9121014607116393e+00 9.8361922932088568e+00 0 1 1
2091 1 4.2874288423166487e+00 1.1020670362576483e+01 8.6752098105646631e+00 1 1 -1
3667 2 6.1298189867564012e+00 9.6702382459424143e+00 7.1570549957456286e+00 1 1 1
648 1 7.9001632632004561e+00 9.5033371319461288e+00 1.0822190644846099e+01 0 0 1
3544 2 8.6217933454113229e+00 8.4518281232848622e+00 8.4430610011982434e+00 1 1 0
2677 2 1.0401562185429565e+01 7.7312469830053185e+00 1.0833661013412389e+01 0 0 1
2440 1 1.1615661772609746e+01 7.4306550494221959e+00 8.1240812544725447e+00 0 -1 1
3709 2 1.2939639329630269e+01 9.4159649089857513e+00 9.9053677794087864e+00 1 0 1
1882 1 1.1059631974403834e+01 9.9861126279058876e+00 8.1518209845073866e+00 0 0 1
2905 2 1.0049219167579505e+01 1.1121853490329608e+01 1.0489329144217461e+01 -1 -1 1
2717 2 7.9100925041523329e+00 -1.9128593740498872e+00 -8.0451119311475527e-01 -1 1 0
1170 1 1.6912609071051783e+01 1.0316181094618797e+01 1.1229489931171395e+01 -1 0 0
2607 2 2.1581356955942388e-01 1.9146534417252075e+00 1.4433723999897975e+01 0 0 0
816 1 -6.6400465831892963e-01 -2.5894481927543067e-01 1.3234574279167973e+01 -1 0 -1
960 1 2.4353263306759194e+00 -1.0661224043033446e-01 1.4226892242183315e+01 1 1 0
314 1 2.2286031169785350e+00 1.9715224544202652e+00 1.2772652881298153e+01 0 -1 2
3897 2 1.2981024615414842e+00 -3.3493142667440035e-01 1.1507994867817734e+01 0 0 0
1334 1 4.1502673731030892e-02 2.2142291544042623e+00 1.1474535499439867e+01 0 0 -1
1504 1 4.8814365231016428e+00 -6.1425759778567457e-01 1.4065100485470483e+01 -1 1 0
3019 2 4.3707677489159176e+00 2.0089908371674299e+00 1.4622013711394811e+01 0 2 0
3039 2 7.3723643110713617e+00 -9.5575710541151215e-02 1.2944758059298159e+01 0 -1 -1
1871 1 6.1930985646132424e+00 2.2266257633799960e+00 1.2389038259540463e+01 0 1 1
3403 2 4.4253324652991006e+00 3.9717056948296792e-01 1.1496908113363045e+01 1 1 1
2570 1 8.3598732991405758e+00 3.5534081639611292e-01 1.5392081696301993e+01 0 2 0
3526 2 1.0097422969381901e+01 -1.3681378527144812e+00 1.3486955201696714e+01 -1 1 0
2304 1 9.8255270589234307e+00 1.3774262389034271e+00 1.3800739177579207e+01 1 1 0
3908 2 1.2480452905884080e+01 5.3496985503853400e-01 1.3536519457179693e+01 0 0 0
2008 1 8.5597818183198040e+00 2.4105662734843394e+00 1.1809817374300229e+01 1 1 1
1669 1 1.5411264120408163e+01 6.0752605601901122e-01 1.3890645275775977e+01 1 1 0
3387 2 1.7164135366739423e+01 1.7231512033919638e+00 1.2156397395097960e+01 1 0 1
2818 2 1.6863031793777463e+01 -1.3665854798001495e+00 1.2161025249361456e+01 1 1 0
325 1 1.6717407455688097e+01 -1.6538385982258106e+00 1.5251502050326863e+01 -1 0 -1
1136 1 1.4584170412178931e+01 1.2813409896477390e-01 1.1548295507953801e+01 -2 2 0
3378 2 1.4337019172875461e+01 -1.8397938212252440e+00 1.4036492319711925e+01 0 1 -1
1397 1 1.4154659265095756e+01 2.4224439875463943e+00 1.5286253127018224e+01 2 0 2
401 1 -3.2732285696511543e-01 4.2525793929947202e+00 1.3262475004027834e+01 0 0 0
1775 1 1.0346788074195508e+00 6.3344581721670963e+00 1.3602206782196442e+01 0 1 2
513 1 -1.3612913157275126e+00 6.1289486961704309e+00 1.4643072604746418e+01 0 1 0
742 1 2.4090216641101856e+00 4.0674510693272490e+00 1.4055188969849588e+01 0 2 0
578 1 2.7967220555915251e+00 6.2693724726979134e+00 1.5297897089927098e+01 -1 -1 1
3476 2 -1.1198741415890052e+00 6.7769121940956882e+00 1.1880325125749726e+01 0 2 0
3474 2 1.7948915884772392e+00 4.7515597177152298e+00 1.1523593563738677e+01 0 0 1
7 1 1.7870359488006383e+01 7.4341073226939383e+00 2.2180920163746340e+01 1 0 0
2321 1 7.2346580103974993e+00 2.6368501391735704e+00 1.4512541439931869e+01 0 0 1
3336 2 5.0610896211557064e+00 5.1119366226396705e+00 1.4154497653570374e+01 0 1 0
1525 1 7.3195057901479039e+00 4.5842802830778542e+00 1.2765130216110677e+01 -1 0 0
2265 1 4.0855752710541573e+00 3.3390212923605995e+00 1.2037177253134740e+01 0 3 -1
888 1 4.9613361520600412e+00 5.5574116626185841e+00 1.1447120936232102e+01 2 0 0
3178 2 7.9930301422026115e+00 5.3299429733047692e+00 1.5671653433186357e+01 -1 0 -1
1155 1 1.1096620416396764e+01 2.7421176518248647e+00 1.2075032965345027e+01 0 -1 1
23 1 9.5446522592448186e+00 3.8070466239746210e+00 1.3791977119035582e+01 -1 0 0
757 1 9.1467468450409459e+00 6.3287832214554260e+00 1.3254016403656570e+01 -1 0 1
385 1 1.0792202661736969e+01 5.4456176510317000e+00 1.5028830785152394e+01 -1 -2 0
1412 1 1.2322402449511170e+01 3.7291066532103754e+00 1.4197091012468476e+01 -1 -2 0
3099 2 1.1738697631117491e+01 5.4376192763625317e+00 1.2260536577535026e+01 -1 0 0
2230 1 1.6833807579126855e+01 2.5559815445114555e+00 1.4813528826591448e+01 1 1 0
230 1 1.3129243533759663e+01 6.3719200413349970e+00 1.4421144030599272e+01 -1 0 0
3792 2 1.4172058704314765e+01 2.9433832812458567e+00 1.2425036814215231e+01 0 1 2
1154 1 1.4548595016793080e+01 5.8540984118878416e+00 1.2561330187699642e+01 0 0 2
2756 2 1.5784407014484593e+01 5.1426755358272400e+00 1.4883608813379585e+01 -1 1 1
883 1 1.6503859350227234e+01 4.3465343240483199e+00 1.2254323500379815e+01 0 1 1
284 1 1.7214617695632047e+01 6.6230583671788246e+00 1.2907545202009175e+01 -1 -1 0
111 1 1.3580284872267585e+00 7.8515990814870005e+00 1.1601887186185699e+01 0 1 1
923 1 -4.0761359550865439e-01 8.6194108454176259e+00 1.3775963222180090e+01 0 1 0
2792 2 2.1736824115957010e+00 9.0124282438385848e+00 1.4258418296963008e+01 1 -1 0
1268 1 2.6402454554045649e+00 1.1174460073084953e+01 1.2706945885601483e+01 0 1 0
3097 2 1.8605228165845089e-01 1.0354707590234813e+01 1.1469983779337381e+01 0 1 -1
1169 1 4.7045097130659741e-01 7.2700056729416804e+00 1.5838680387665928e+01 0 0 -1
407 1 3.5590173538846530e+00 7.2041045532587589e+00 1.2714570749454634e+01 0 0 2
1055 1 6.9319656572113324e+00 7.3700696201248359e+00 1.4111807296853947e+01 0 1 1
2156 1 4.6664645893231977e+00 8.0870336371745246e+00 1.5033414685440739e+01 1 0 0
3705 2 5.5970040334424986e+00 9.5189096611712483e+00 1.2599891400430108e+01 1 0 0
717 1 4.3585154581965613e+00 1.0700132013651823e+01 1.4727595123580560e+01 0 0 1
2872 2 6.8861928916496318e+00 9.7278756979505516e+00 1.5505497079838605e+01 0 0 1
2061 1 9.1199594865061275e+00 7.8086210157312852e+00 1.5499214206117525e+01 0 2 0
3925 2 8.9814661785241903e+00 9.2850776941332356e+00 1.3210434238203025e+01 1 1 0
12 1 1.0780641424999200e+01 9.8062620992848526e+00 1.5131287380152855e+01 -1 0 -1
710 1 1.1126657607878441e+01 7.7091125224183639e+00 1.3785657751725898e+01 0 1 1
1140 1 1.1649571626020762e+01 9.9494960308677864e+00 1.2505356241445128e+01 -1 0 0
190 1 1.3147551158869568e+01 7.8955416838194186e+00 1.2235272306595810e+01 -1 -1 0
3871 2 1.3331970745290967e+01 9.2716670809837574e+00 1.4656792665189414e+01 0 1 0
1434 1 1.5457832057090560e+01 7.9199078842682198e+00 1.3972517094642726e+01 1 0 -1
1699 1 1.4458976427464389e+01 1.0086187607675612e+01 1.2100677825790370e+01 0 0 -1
527 1 1.5641946977398742e+01 1.0778482750659203e+01 1.4160350262666153e+01 0 1 1
2646 2 1.7781319329309170e+01 9.3871873289319829e+00 1.3658599453222470e+01 0 0 0
1451 1 1.4380796865410733e+01 -1.9329681420385896e+00 1.6825896892887133e+01 0 0 0
2658 2 4.5413145929705934e-01 -7.2996924831998711e-01 1.6059454852383425e+01 0 0 0
579 1 2.0342864237891183e+00 1.6467596583730093e+00 1.6334400925677130e+01 0 0 0
318 1 -6.1672000771965596e-01 1.5922014465478247e+00 1.7045853466233385e+01 0 1 1
3415 2 -3.1133781190642917e-01 -2.9817842351803980e-01 1.9189458008513988e+01 1 0 0
2604 2 2.8086151609663341e+00 -1.2835287281827434e-01 1.8864032443540076e+01 -1 0 -1
556 1 -1.4304894508277863e+00 2.3941244960698151e+00 1.9512704217090448e+01 -1 0 1
3247 2 6.3631437282328331e+00 -1.5346831227942619e+00 1.6234665192528659e+01 0 2 0
982 1 6.3387916436929377e+00 1.1961905669845789e+00 1.6494827679010257e+01 0 0 1
966 1 3.9113618108214894e+00 -1.9966737436746884e-01 1.6391228752906827e+01 -1 -1 -1
1441 1 4.2162247418708692e+00 2.0058284958734012e+00 1.7638804362424143e+01 1 0 -1
1322 1 5.5470624872566390e+00 3.0221297752820009e-02 1.8663637116139167e+01 0 1 1
3618 2 7.0512659757134237e+00 -1.6586779844854309e+00 2.0138489169989860e+01 1 0 1
1744 1 4.1553068928848829e+00 1.7299358435256948e+00 2.0213196628942846e+01 0 0 0
2001 1 1.0701577750695035e+01 -6.5337555374880507e-02 1.5833545847831303e+01 2 1 0
427 1 1.1269254339368210e+01 -1.4869663119968692e+00 1.7809413628981726e+01 0 1 0
2800 2 8.7406781220252512e+00 6.5832297645278537e-03 1.8002369537769624e+01 0 -1 1
1211 1 1.1543249210185468e+01 9.5996486796528124e-01 1.8733983286818386e+01 0 0 1
1076 1 1.0258540865067607e+01 -6.2574004490664814e-01 2.0195165378039281e+01 0 2 1
2131 1 1.3090745461213555e+01 1.6917352001573382e-01 1.6307522910696598e+01 -1 2 0
3563 2 1.6784907881956702e+01 -1.6992151436451115e+00 1.8140125402337880e+01 0 1 -1
2753 2 1.3904867637049138e+01 -4.7503472061325036e-01 1.9082354767019726e+01 0 0 1
2315 1 1.5865755665721959e+01 1.7583530622439363e+00 1.9447940596263976e+01 0 2 0
2835 2 1.5774207723637229e+01 6.5549929521299433e-01 1.6541285503881017e+01 0 1 2
1056 1 1.3713048759795493e+01 2.1141228031175503e+00 1.7802626709976273e+01 1 1 -2
2388 1 1.7437632848649994e+01 1.0015092184041345e+01 2.2174174978903132e+01 0 0 -3
704 1 1.3339616643330837e+01 2.0386450601139305e+00 2.0272399073605758e+01 0 1 1
2642 2 5.1518719665491197e-01 4.5186496058150922e+00 1.6025806821463217e+01 0 0 0
3671 2 1.6452008283092256e+00 2.8556593784155151e+00 1.8711152612194361e+01 0 1 0
2203 1 -1.4316935752604110e-01 4.8537835494546222e+00 1.8871661965589428e+01 0 0 1
1487 1 2.2465868063013090e+00 5.5824170213089221e+00 1.7848098745503023e+01 1 2 1
334 1 -1.6634195594392402e+00 6.0641734508718406e+00 1.7179761845672957e+01 0 0 0
1740 1 -1.8411585154970165e+00 3.6646844329635240e+00 1.7571180456388550e+01 1 1 -1
2195 1 1.8400013139847982e+00 5.4047811499349088e+00 2.0227684576812635e+01 2 1 1
3754 2 6.6096225263448911e+00 2.5059420323830199e+00 1.9030154290136633e+01 1 -1 -1
586 1 3.3724653849763238e+00 3.9600555550768766e+00 1.6336079584327180e+01 0 -1 1
703 1 4.0457549460120976e+00 4.1221666554331122e+00 1.9204343279937554e+01 0 1 1
1660 1 5.9225555756795396e+00 3.7189340638408481e+00 1.6563589294567290e+01 1 -1 -1
3738 2 4.8197316240841266e+00 6.2747049902633734e+00 1.7129693074157274e+01 1 -1 -1
2443 1 6.1663740774552771e+00 5.3207720401897962e+00 1.9212886005338561e+01 -1 0 0
3994 2 1.1095317578010349e+01 2.4675688937268472e+00 1.6270317945149440e+01 0 0 1
1858 1 8.1843368191637964e+00 4.6030742521149666e+00 1.8232465797250736e+01 1 0 -1
2343 1 8.3436663522240302e+00 2.6514076435824192e+00 1.6676637987007201e+01 1 1 -1
1560 1 9.5727164504068742e+00 2.6371328343489058e+00 1.8903101957713211e+01 -2 1 -1
636 1 1.0492763246484152e+01 4.8670810903240529e+00 1.7436186213516741e+01 0 0 1
107 1 1.2493821637033383e+01 6.1210158704766897e+00 1.9281626625606471e+01 0 -1 -1
538 1 1.1898680264932112e+01 3.5793322834278545e+00 1.9027663095363664e+01 0 0 0
3492 2 1.0031339828752774e+01 5.3184385223254962e+00 2.0138181644292878e+01 0 1 1
3072 2 1.3278555470992092e+01 4.7539294521458695e+00 1.6659713825376929e+01 0 0 1
3992 2 1.4577341619140391e+01 4.2678008193612067e+00 1.9407976851280893e+01 0 1 -1
2247 1 1.5863189150003905e+01 3.3696320836744782e+00 1.7185887582441055e+01 2 0 -1
2866 2 1.6433670599229778e+01 6.1890815469003400e+00 1.7797229741689719e+01 -1 2 0
2820 2 1.7918256428466961e+01 3.7717793992936812e+00 1.9310494748955652e+01 1 0 -1
130 1 1.8026754370971261e+01 4.2776775011846100e+00 1.6398676711230117e+01 0 0 1
2897 2 4.4575402513006779e-01 7.5059086752017823e+00 1.8616723368591167e+01 0 0 0
152 1 5.0939446463639237e-01 9.6027496409900213e+00 1.6787233061619322e+01 1 0 1
920 1 1.9834380123146436e+00 9.6805908966047660e+00 1.9036631569117102e+01 0 -1 -1
1484 1 2.5892480235657356e+00 8.1228240231085547e+00 1.6866439915887007e+01 0 1 0
1310 1 -1.5426036434470691e+00 1.0351378382009681e+01 1.8543619446349751e+01 2 1 -1
1052 1 2.5256930019695831e+00 1.1082050276858743e+01 1.6472184190565645e+01 2 0 1
1589 1 3.2866201143587190e+00 7.5215425543434566e+00 1.9130525052927336e+01 0 2 1
1599 1 7.0595250544936974e+00 7.7469962403646857e+00 1.7284466364527475e+01 -1 1 0
2398 1 5.8392876441475350e+00 7.8149985545110976e+00 1.9628531391200198e+01 0 -1 1
3575 2 4.6731699947164982e+00 9.6376601697857804e+00 1.7664673181769139e+01 1 -2 1
10 1 7.1008107768663695e+00 9.7939944274666306e+00 1.8734065535062204e+01 0 1 0
1705 1 9.2100524792154470e+00 6.9067833158040965e+00 1.7936156010839916e+01 1 0 1
402 1 1.0926064364340126e+01 8.1039373933860546e+00 1.9330198425733130e+01 -1 0 -1
3412 2 9.5137692053430971e+00 9.7247046903397507e+00 1.7502783947256987e+01 -1 1 0