LAMMPS data file via write_data, version 3 Mar 2020, timestep = 1799500

4000 atoms
2 atom types

-2.1852573310366097e+00 3.8285257331032099e+01 xlo xhi
-2.1852573310366097e+00 3.8285257331032099e+01 ylo yhi
-2.1852573310366097e+00 3.8285257331032099e+01 zlo zhi

Masses

1 63.546
2 91.224

Atoms # atomic

3309 2 -1.1490636309125786e+00 -7.9242969610968150e-01 1.0355096807271251e+00 0 0 1
3406 2 2.0766651079837031e+00 2.5749360427600010e-02 6.3329471360548295e-01 1 1 1
409 1 -1.3342102536472833e-02 1.6104427769953706e+00 -3.2818420338407051e-01 0 2 0
384 1 3.1317936494768039e-01 -5.4432317810762831e-01 -1.5826328810175330e+00 1 -1 1
3488 2 1.9111961464725269e-02 1.7156635183980025e+00 2.5007363770273008e+00 0 0 0
1896 1 -1.6788627358004804e+00 -1.8285303097118939e+00 -1.8679848697985557e+00 0 0 0
2855 2 -2.1212258906924371e+00 8.8626982734032822e-01 -1.8848834377905122e+00 1 0 0
2175 1 4.7598598544351116e+00 1.2694854757138962e+00 1.6689671425033259e+00 0 1 1
2106 1 7.3334419458092110e+00 -8.5680419920593387e-01 -1.0070026749884913e+00 0 2 1
1356 1 6.9551094873969284e+00 -4.4708077825140102e-01 1.5457072669704308e+00 0 0 1
467 1 4.8772798490453173e+00 -4.2616433466872139e-01 -1.7671143830983382e-01 -1 1 0
3991 2 6.9263433193309822e+00 1.7708046650200759e+00 -1.7555611552359185e-01 0 1 1
1077 1 3.9189738389757780e+00 1.7876302897882415e+00 -8.7331704527337917e-01 2 0 1
3211 2 4.2537619376108280e+00 -1.3529933071450593e+00 2.4628723946724929e+00 1 1 -1
422 1 9.2177032300588486e+00 6.2270270135439620e-02 4.1210510885402218e-01 0 1 1
52 1 1.1581013664729785e+01 4.8254007057561754e-01 -1.4735532411495988e-01 0 0 1
3487 2 1.1142133758040721e+01 -1.2810614009449084e+00 1.9895672246254552e+00 -1 0 -1
3710 2 9.2958412585221417e+00 1.5153475291022329e+00 2.6071742795435995e+00 0 0 2
2138 1 1.2038730653228093e+01 2.2887860011203971e+00 2.1884460957628891e+00 1 0 0
1942 1 1.3311839763860194e+01 3.0567684775597392e-01 1.8405305226015631e+00 0 0 1
1186 1 1.6705741439261370e+01 -1.0384437814833931e+00 -7.9591288682612582e-01 2 1 0
3658 2 1.4131145494320755e+01 -4.1043036589437065e-01 -7.0484428295497836e-01 1 1 1
2090 1 1.5982405726457667e+01 1.4024978547979710e+00 -4.5862836021397513e-02 0 2 1
2212 1 1.5584614093909760e+01 -4.7458752955165773e-01 1.6351847740090468e+00 1 1 1
3739 2 1.7701265107599319e+01 1.1735028622321653e+00 -1.9773467730852736e+00 -1 1 -1
326 1 1.3404009834805541e+01 2.1874965175239760e+00 -2.3937577116905473e-02 -2 0 1
868 1 1.4741706107857485e+01 2.0957785097851520e+00 -2.1827546610431310e+00 1 1 2
2188 1 -1.0571693631223678e-01 5.3777437469814391e+00 -1.9282426390714786e+00 1 -1 1
2120 1 2.4169899171093441e+00 5.9662460635895993e+00 -1.7765880394423199e+00 1 0 -1
1258 1 -2.3823634932146698e-01 4.0221896961200789e+00 3.2531383092089561e-01 1 0 -1
3429 2 1.7411233292336066e+00 3.3321653795541888e+00 -1.6183039619953639e+00 0 0 0
2776 2 1.3530091743154520e+00 6.4107468068439282e+00 7.2501972097973999e-01 1 0 1
2948 2 2.6536366299176803e+00 3.3380403017923852e+00 1.3128411899318637e+00 0 0 -1
607 1 -1.4004336183304866e+00 6.5749904868536948e+00 3.2184339718734245e-01 -1 1 -1
3587 2 -1.7350123950073204e-01 4.7936353831101135e+00 2.8600965997969094e+00 2 0 1
652 1 4.1867726446272924e+00 4.3243592633786552e+00 -9.3735286247170824e-01 1 1 -1
2031 1 5.3847501461798313e+00 3.7296510051734577e+00 1.1934408005294439e+00 -2 -2 1
3926 2 7.1684627271084089e+00 4.8639957494279162e+00 -7.1828673867468829e-01 1 0 -1
2771 2 4.6151291390974452e+00 6.3438059186627900e+00 7.8073394981320110e-01 0 -1 1
2108 1 6.7118436179882917e+00 2.4283732109544571e+00 2.7553159926955821e+00 1 0 -1
699 1 8.1215117124231764e+00 3.9347338164062444e+00 1.5670066104410063e+00 0 2 1
2562 2 1.0037604205742960e+01 2.8070375996797887e+00 -2.8754783353435842e-01 -1 0 1
2084 1 9.7883395772909605e+00 5.6312064330949214e+00 5.2728289162936903e-01 0 1 0
3561 2 1.2622499035108156e+01 4.7084192038982753e+00 6.3315331451896695e-01 0 0 1
881 1 1.0466135085077250e+01 4.2136002365350347e+00 2.4655864946701769e+00 1 0 0
2162 1 9.9291149463307047e+00 5.0488090087748505e+00 -1.9219239086004238e+00 1 -1 0
3156 2 1.1995934111859025e+01 6.6132305043874506e+00 2.8784919331160994e+00 0 0 1
3927 2 1.5089170976044937e+01 2.6528151458777174e+00 2.0675458523457344e+00 0 0 -1
2368 1 1.4769329845352068e+01 5.7869143100138070e+00 1.9005190824051130e+00 0 1 1
3623 2 1.5731066144174900e+01 4.0740810837545842e+00 -6.4375130614324383e-01 0 0 0
2889 2 1.7314272825307789e+01 4.9371519823893797e+00 2.2649411269104620e+00 0 -1 1
433 1 1.4041704198832917e+01 6.0474648469246901e+00 -1.6054760252974281e+00 1 1 0
2083 1 -2.1256561149864410e+00 6.8782455600046841e+00 -2.1546550570874929e+00 1 1 -1
1348 1 1.6049457269432468e+00 9.9203871512049133e+00 1.3198668263940760e-01 0 0 0
3210 2 -4.0295383372023008e-01 9.1149849370182050e+00 1.5510009303720995e+00 -1 0 0
1471 1 -2.2864213123164734e-01 1.0611250711263320e+01 -1.4765142134377809e+00 2 -1 0
3112 2 4.3284638856804980e-01 8.0533245062955672e+00 -1.7907911711591007e+00 1 2 0
1600 1 3.0345170810632762e+00 8.2905043316340290e+00 2.0163036509458978e+00 1 0 -1
1014 1 7.3381575979614428e+00 7.0625051945795487e+00 1.0030970917722377e+00 0 0 1
1000 1 3.1732629545991964e+00 8.1145238937335549e+00 -8.7275664107294859e-01 1 1 1
3095 2 4.2093773783292852e+00 1.0406852804583394e+01 -1.9776245785051660e-02 1 -1 1
670 1 5.7193837275981272e+00 8.9377729815744580e+00 1.5728972427384953e+00 0 2 0
14 1 5.9297019587835536e+00 8.2247812628376504e+00 -7.8258361048550684e-01 2 0 2
220 1 6.3876988842902680e+00 1.0819464067863947e+01 -1.4733380636768010e+00 0 0 0
2197 1 7.8597259224167733e+00 8.8558312508722210e+00 2.8024563600499048e+00 1 0 -1
1740 1 4.1474566018663754e+00 1.0350234914118818e+01 2.8750955439448349e+00 1 0 -1
3104 2 8.1246515901311245e+00 9.6605638327610741e+00 1.1425720334373102e-01 0 1 0
3846 2 1.1425347859568346e+01 7.2207722832134262e+00 -1.0628301997846639e+00 1 -1 1
1801 1 8.6396441415276293e+00 7.1904719065932827e+00 -1.2035777695146996e+00 2 1 1
129 1 1.0025847168112652e+01 8.0914056258434446e+00 1.2527874055838328e+00 0 2 1
2169 1 9.6326556670849364e+00 1.0689306470176188e+01 2.3653909421438559e+00 0 -1 -1
1901 1 1.2554566034793279e+01 9.7498839336703824e+00 -1.1171326592098123e+00 0 1 1
3848 2 1.2219676470437319e+01 9.6926175920126365e+00 1.8701101181816311e+00 1 0 1
29 1 1.0007253625379816e+01 9.2567897425724173e+00 -2.1212087958710306e+00 0 1 0
1659 1 1.3416855912477992e+01 7.5970621844634483e+00 5.6343459416147335e-01 0 0 0
3139 2 1.6093651666564380e+01 7.3313822473950445e+00 7.6274659182833382e-02 1 0 0
497 1 1.7200312005438246e+01 9.6136771080155494e+00 1.1031730859665938e+00 1 1 0
1862 1 1.4909856405476205e+01 9.8495668076647007e+00 -3.1592913173201520e-01 1 1 0
833 1 1.5078282723204833e+01 1.0553955675925144e+01 2.0102426605610031e+00 -1 0 0
1398 1 1.6891393301643326e+01 7.6538992579273479e+00 2.7917002873478367e+00 0 -1 0
5 1 1.4407066031731322e+01 8.2086383144361950e+00 2.8236729345043035e+00 -1 0 1
3114 2 1.7262270323801026e+01 1.0113979884402509e+01 -2.0753389072434882e+00 0 0 1
2069 1 -5.0472515680277663e-02 -1.1736671838717443e+00 6.4110035012006481e+00 1 1 -1
3446 2 1.0805053103343210e+00 -9.7930624033997260e-01 3.7015546911596413e+00 0 1 -1
889 1 -1.0429647620437192e+00 5.5304999870096649e-01 4.8200572745446806e+00 0 1 -2
788 1 1.3073046296288551e+00 9.7046231718390841e-01 5.6699962426983896e+00 0 1 0
89 1 -1.6459729030515797e+00 -1.7933718989993770e+00 3.8544852304336077e+00 -1 0 1
2671 2 -1.1598606586095066e+00 9.2278194039193862e-01 7.7736784833947077e+00 0 0 0
834 1 2.7187382018279722e+00 1.1677485487664105e+00 3.1464441062585768e+00 1 0 -2
3528 2 2.8594381942560094e+00 -3.0992106923268037e-01 7.6650312473437232e+00 0 0 0
2113 1 5.2564876518539423e+00 5.7923403046834476e-01 6.5649872608050153e+00 1 0 -1
3070 2 6.1981565789404716e+00 2.4831495467632525e-01 4.0747643594860259e+00 0 0 -1
1250 1 3.4653523143036722e+00 -2.4393604727376084e-01 4.9733977730086831e+00 1 0 -1
3355 2 7.4230028959123615e+00 -1.0840726946433787e+00 6.4945999058976387e+00 1 1 2
1439 1 8.8582323528409734e+00 1.2927269103313264e+00 5.4319952152993460e+00 1 1 1
1441 1 9.2115882988457489e+00 -8.3999643661957069e-01 4.0017125893956349e+00 1 0 0
956 1 1.1636584251190724e+01 3.4319595051415464e-01 4.1853005761914996e+00 1 0 0
2846 2 1.0576676377558586e+01 -7.0118538895889149e-01 6.5214392112611090e+00 1 -1 0
749 1 1.2677406084579244e+01 1.3386080504400328e+00 6.3591162229182778e+00 0 0 1
667 1 1.0700423977878026e+01 1.8080156032372772e+00 7.7414557801886268e+00 0 0 -2
414 1 1.7763393197671498e+01 2.3073314259502764e+00 2.9386002939143436e+00 0 2 0
1388 1 1.7723718982255615e+01 1.9801129286952355e+00 5.5300996688749358e+00 0 1 1
1849 1 1.3303174386668928e+01 -1.1040169158856064e+00 6.3503531722063062e+00 0 2 1
3629 2 1.6984065907072523e+01 -1.5981721626160179e+00 5.9698108670212733e+00 0 0 0
553 1 1.7251751998924341e+01 -1.6779062273035534e+00 3.2625857938914438e+00 0 1 0
2637 2 1.4302268737832819e+01 -1.3343797038539527e+00 3.8542352985409831e+00 0 0 -1
2063 1 1.6320370966218182e+01 5.8638257954016737e-01 3.9255610554998750e+00 0 0 0
3865 2 1.5390842924738848e+01 9.6702569250987835e-01 6.5411821843548257e+00 1 0 1
542 1 1.3803573675133906e+01 1.5661289309945667e+00 4.1523063065566586e+00 -1 0 1
1460 1 -9.2003030556060117e-01 5.4747723986339132e+00 7.3302039025683143e+00 0 0 0
3243 2 -3.6376108528579842e-01 3.1051401353126797e+00 5.9065106400749983e+00 1 0 1
1705 1 1.7608238808681409e+00 3.2733477044016803e+00 3.9863514733461640e+00 1 0 1
2002 1 7.6404707853605291e-01 5.3369813211388992e+00 5.2877940071043650e+00 1 1 -1
1130 1 1.4531715756107220e+00 4.4848676293012986e+00 7.8267475599212037e+00 1 0 1
3495 2 2.6868431638266479e+00 6.7164610850797786e+00 6.2573769506338657e+00 0 1 0
555 1 -2.0863629728631410e+00 5.2394061311213012e+00 4.9595126649224381e+00 -1 0 1
557 1 1.3727355219495275e+01 1.0520529306906562e+01 6.6201499223641793e+00 -1 0 2
2336 1 6.2474094605930901e+00 4.8676382873188819e+00 3.2241733329416062e+00 1 0 -1
3289 2 3.0523672834266948e+00 5.6466114307439863e+00 3.3346562882778095e+00 -1 0 0
2817 2 3.2066020342166928e+00 2.9618756779495330e+00 6.2177236589663192e+00 1 -1 1
2602 2 6.4944042617898443e+00 3.0340007006406298e+00 5.6569966203340680e+00 1 -1 -1
1295 1 4.4269842623109374e+00 2.9824044598285679e+00 3.6706277300484862e+00 0 1 1
1798 1 4.8003741314446389e+00 5.1740915231940781e+00 5.3316104514867702e+00 0 0 -1
2254 1 7.3636503199914234e+00 5.5514438540314019e+00 5.5962155660685111e+00 2 0 -2
1767 1 4.6375394264396270e+00 4.8065008873813468e+00 7.7772498850590637e+00 1 1 0
3254 2 8.7342195702136429e+00 6.2209901747622283e+00 3.0732856775053410e+00 1 1 1
205 1 1.1909372070200401e+01 4.0721615242960878e+00 7.2455459874564276e+00 0 2 1
551 1 8.5704507643977674e+00 3.6920018224225251e+00 4.1042803155995378e+00 0 1 1
1271 1 9.0670587849056865e+00 3.5677364858405083e+00 6.5090589656322795e+00 0 0 0
3731 2 1.1288257067899226e+01 3.0677094472733533e+00 4.8003180402340782e+00 0 0 1
2773 2 1.0113060954553854e+01 6.0991638154773913e+00 5.7430590090946714e+00 1 0 1
1869 1 1.2690560241573850e+01 5.5450930740203876e+00 5.4149669857591736e+00 -2 0 1
309 1 1.3482462116105966e+01 4.2062186520184426e+00 3.4757966847463422e+00 1 1 1
3093 2 1.6446053839247295e+01 3.8592798221162736e+00 7.7374569785192016e+00 0 0 0
1157 1 1.7675736155442340e+01 5.1895013664166454e+00 5.5055305739244496e+00 1 0 0
693 1 1.4110601648897873e+01 3.4740754257633011e+00 5.9387664031127851e+00 0 1 0
2958 2 1.5254861522699496e+01 6.2205457679305134e+00 4.7328533644164121e+00 0 -1 2
490 1 1.6108910388123714e+01 3.4872841549632039e+00 4.4595751361998861e+00 -1 0 1
1347 1 1.4297811081035483e+01 5.5431504797982267e+00 7.3595724337222101e+00 0 1 -1
2268 1 1.6513159715673769e+01 6.5251792484157107e+00 7.5391123692168023e+00 0 0 0
1828 1 -2.0657637685041923e+00 9.5067379214018999e+00 3.7075229711912492e+00 0 0 0
1214 1 -1.3473275123881445e+00 7.1091860584794215e+00 3.0111283347723896e+00 1 0 -1
2521 2 1.4184070193203064e+00 1.0736538155914811e+01 3.7303660746970033e+00 0 0 0
189 1 1.1520656074799498e+00 7.7078857117539279e+00 3.6711133629142978e+00 1 1 0
3897 2 -6.6922887013674948e-01 7.6569705327630402e+00 5.6856694300960120e+00 0 0 0
2304 1 1.2896596339960418e+00 9.3843650205167393e+00 6.2174265108971483e+00 1 -1 1
819 1 -8.0864216814218093e-01 1.0678654817494291e+01 5.5425886814476382e+00 0 -1 0
1835 1 -7.1513284299487268e-01 9.8228315084299211e+00 7.9129855704510206e+00 0 0 0
1046 1 3.1927576184217177e+00 1.1178593588172962e+01 5.9399940446697350e+00 0 -1 1
1102 1 7.5149485377108896e+00 9.4717115927096867e+00 6.8609432496117364e+00 -1 -1 0
1215 1 3.3454789989314859e+00 8.8918057093052756e+00 4.8007263678341054e+00 2 -1 -1
2655 2 5.5545870065138843e+00 7.4617235157684902e+00 3.7980430269945957e+00 1 1 0
2462 2 5.6655108319861132e+00 7.3785846848348253e+00 7.0124919306645381e+00 -1 0 0
2657 2 5.7175429718887445e+00 1.0300737112594096e+01 5.0655990475438051e+00 -1 1 1
2376 1 5.6471812957043390e+00 1.0574145611682091e+01 7.7899801186038111e+00 0 0 0
1863 1 1.3510146569591992e+01 1.0812014681785513e+01 3.9192016952435518e+00 0 -1 1
1612 1 8.0725150191213277e+00 7.8867218491122326e+00 5.2243931534918842e+00 -1 -1 -1
3389 2 1.1057403640050619e+01 1.1097130192392317e+01 4.9539295563073233e+00 0 1 2
2998 2 1.2705583007728006e+01 8.3945779696181937e+00 5.2827406184582122e+00 -1 0 1
252 1 8.4346243578593061e+00 1.0329609550153634e+01 4.6310264431913231e+00 -1 0 1
3060 2 1.0231698989560112e+01 9.2562500179701122e+00 7.0040053429557538e+00 0 0 1
341 1 1.0229466241102427e+01 8.5401102811802456e+00 3.9074310042987790e+00 -2 0 1
2945 2 1.6290298106468992e+01 1.0422374102046684e+01 7.7488345016695988e+00 0 0 2
3572 2 1.7994302959904036e+01 7.9478025427677608e+00 5.8842318218452938e+00 0 0 0
603 1 1.4850540452836725e+01 8.1759727370642388e+00 6.8352813149639999e+00 0 0 0
3441 2 1.5913189338674101e+01 9.8066035603533859e+00 4.5566411192691572e+00 1 -1 0
1459 1 6.4503645437439028e-01 -6.0938012797794383e-01 9.0249310721555869e+00 0 1 2
175 1 1.7577842124400620e+00 -1.4392916421399038e-01 1.2517191496560709e+01 0 0 0
2654 2 8.6141092197861369e-02 1.4710526194409521e+00 1.0808486344065122e+01 1 0 0
1891 1 -1.5771517579312055e+00 -1.7318801896866751e+00 8.4241834931318493e+00 2 0 0
1280 1 2.5357242570747429e+00 5.3323739555594862e-01 1.0177688024738275e+01 1 1 1
2680 2 -1.5364939909891939e-01 -1.9966875343940920e+00 1.1130747253389030e+01 0 1 -1
2040 1 1.3758905075297694e+00 1.9250484510813832e+00 8.1604440582464175e+00 1 0 1
508 1 1.5385903146825751e+01 1.0935697719852572e+01 1.6839242820299575e+01 -1 0 0
3741 2 5.3103786874846062e+00 1.9630949928441943e-03 9.2399324152961420e+00 1 0 -1
2495 2 4.4982801587996493e+00 7.6053372293450305e-01 1.2122240100788474e+01 0 1 0
1425 1 7.4557982918759507e+00 6.2901241989913537e-02 1.1102092529709578e+01 1 0 1
1004 1 7.6110197661676970e+00 -1.4255434145021049e+00 9.2285677918902707e+00 1 0 0
3470 2 3.0711093275612544e+00 -2.1308279957686085e+00 1.0684514496224727e+01 1 0 0
3880 2 7.9798005104319731e+00 1.3553459424526242e+00 8.1568455520525163e+00 1 0 1
358 1 1.0957938245250356e+01 7.0936841572658160e-01 1.2371585547324853e+01 1 1 1
3458 2 1.0078831104672028e+01 -3.9201797326221111e-01 9.8425379100846513e+00 0 1 1
1503 1 1.2476872565087568e+01 6.7294462834327717e-02 8.4752936030644452e+00 0 1 -1
1627 1 9.0363097541035629e+00 2.0661964242463995e+00 1.0611181861779714e+01 -1 -1 0
2298 1 1.1501170020383741e+01 2.0048547506285432e+00 1.0175420250281940e+01 1 0 0
2801 2 1.3338883147038960e+01 2.0037831214532353e-01 1.1005824998087606e+01 -1 0 -2
103 1 1.5881932170969655e+01 1.0948345757888633e+00 9.4995046766534657e+00 1 1 0
212 1 1.5931803299296323e+01 -8.7969559018455690e-01 1.1173779449510121e+01 -1 1 1
1219 1 1.7413862087648159e+01 -1.0395838403339768e+00 8.9727020578717749e+00 -1 1 -1
1709 1 1.5427069914225260e+01 1.3446128240378994e+00 1.2512085755654001e+01 0 -1 0
2957 2 1.4862793453418831e+01 -1.4345386596746708e+00 8.5993261423518845e+00 0 0 0
200 1 1.6030813206735687e+01 1.0399401764211023e+01 1.4575142484019377e+01 0 1 -1
420 1 2.1303372548230755e+00 2.6604735486515647e+00 1.2180801708124775e+01 0 0 1
1820 1 -5.8118398789876591e-01 3.4280363120422734e+00 8.8621599072275394e+00 1 0 1
1810 1 1.0478248332218727e+00 4.5176615482239511e+00 1.0415326625913309e+01 2 0 -1
3906 2 -1.6641920445534155e+00 5.7344817713385092e+00 1.0099253140289408e+01 0 1 1
123 1 -1.0922154244958946e+00 3.6489344142859785e+00 1.1688262788481678e+01 0 0 -1
3618 2 7.5431793594015950e-01 5.3604971651355413e+00 1.2945915686342744e+01 0 0 -1
3611 2 2.9515839503197103e+00 6.4169796800916696e+00 9.2354926673456337e+00 1 1 0
1234 1 3.0897393262470114e+00 6.1478827071585407e+00 1.1995842918794446e+01 0 0 0
3198 2 6.3517941093570673e+00 2.7274241380372892e+00 1.0681320041497965e+01 1 0 1
3137 2 3.3518944975686873e+00 3.1819378994565986e+00 9.7687082212520604e+00 0 1 -1
3437 2 5.6408945537676178e+00 5.6755907853523642e+00 1.0376546865117085e+01 1 0 1
1878 1 5.3313299352982009e+00 2.4636404076721288e+00 8.1032651801318352e+00 1 1 1
179 1 7.1526144412356683e+00 4.2998110820005060e+00 8.1722867742182839e+00 -1 -1 0
3547 2 4.5515341745474815e+00 3.9516491903141802e+00 1.2899093119167370e+01 1 -1 0
1774 1 8.1870860601071804e+00 4.6651529562181011e+00 1.0633239745024854e+01 2 1 -1
2599 2 9.8764411491175075e+00 4.1548025131218163e+00 8.9143722806967407e+00 0 0 0
726 1 1.0393628024279401e+01 5.8555718328677138e+00 1.0974013112001117e+01 -1 1 1
2494 2 1.0575454069033329e+01 3.4270356200255438e+00 1.2368857815538689e+01 -1 0 1
1293 1 1.2252684690499560e+01 4.4786475705762818e+00 1.0006112011374645e+01 -1 1 0
2732 2 1.2800846859662535e+01 5.5010343310672782e+00 1.2561418042873994e+01 0 1 0
2539 2 1.2058753203037659e+01 6.6298713713762378e+00 8.2300410818415362e+00 0 0 0
2401 2 1.3726328005756162e+01 2.6480948161793139e+00 8.7128225139764854e+00 -1 0 0
1198 1 1.3645026678232073e+01 3.0360918964991690e+00 1.1496169456559851e+01 0 0 0
1025 1 1.4529653429209105e+01 5.2674889973262564e+00 9.8987487260359597e+00 0 0 0
2714 2 1.6330170939703603e+01 3.5879663319345907e+00 1.1111885747137549e+01 1 1 0
644 1 1.7128099646846973e+01 5.9067209292395724e+00 9.9542297171175669e+00 1 1 0
206 1 1.5318747833102492e+01 6.4514949440124756e+00 1.1982833473798516e+01 0 0 0
1193 1 1.7333186803945704e+01 5.2836110337984650e+00 1.2990894216703316e+01 1 0 1
1927 1 7.1422453844549416e-01 7.6662347335829768e+00 8.2177516610169263e+00 1 0 1
1411 1 -1.1367496174399054e+00 7.1719183311672818e+00 1.2740116915248917e+01 1 0 -1
3279 2 -1.4729216941024807e+00 9.0052204139166232e+00 1.0743458235465784e+01 -1 -1 1
181 1 7.9669895904952304e-01 7.2037174791149141e+00 1.0799352196073922e+01 -2 0 0
3395 2 1.5825936435141661e+00 1.0105728101887921e+01 1.0111515047313189e+01 1 0 0
488 1 -1.8108886773493116e+00 7.7291129991638687e+00 8.2371234459491269e+00 1 2 0
3639 2 6.0603927331645213e-02 1.1278300730305046e+01 1.2383580805684113e+01 0 -1 0
1692 1 3.5448817569219253e+00 8.3356406335947977e+00 1.0996744277058797e+01 1 0 -1
280 1 5.6941748740508658e+00 8.1873126625119923e+00 9.6150088059197198e+00 -1 0 0
3409 2 5.0001376224211649e+00 1.0605326164251688e+01 1.0498391560055680e+01 0 -1 -3
208 1 6.9973775824463598e+00 9.7947193886885628e+00 1.2314682155794827e+01 -1 1 0
680 1 3.9074800629229918e+00 1.0026310803876321e+01 1.2906529925297658e+01 0 0 0
3157 2 7.8838251971996396e+00 9.9466976994186282e+00 9.4305410020098766e+00 0 0 0
3881 2 8.0596060081068064e+00 7.3652583203126198e+00 1.1370744028343527e+01 1 0 0
3415 2 8.4061399477989607e+00 6.8593217596126461e+00 8.2920227097746491e+00 1 1 -1
104 1 1.0443236345424598e+01 1.0886863655729204e+01 9.7188631294999759e+00 0 0 0
3759 2 1.0525153155630935e+01 8.3179556651100413e+00 9.9235228584912942e+00 0 0 0
3920 2 1.2298653682052791e+01 1.0166071749003233e+01 1.1641648554098246e+01 1 0 1
928 1 9.5043508721521093e+00 9.9141671084106342e+00 1.1903290122672372e+01 1 1 0
493 1 1.0966831470403024e+01 7.8270711439049592e+00 1.2580550873574682e+01 0 -2 -2
1032 1 1.2741647000271996e+01 9.4356163362921635e+00 8.7385723003217368e+00 0 0 0
738 1 1.3017033338055901e+01 7.5417566785119110e+00 1.0856431697533479e+01 1 0 0
2079 1 1.7482287614168566e+01 7.7564177672401993e+00 1.1731677695552973e+01 1 -1 0
3660 2 1.5273442672177385e+01 7.9094019605962522e+00 9.5433279873058687e+00 0 1 0
131 1 1.7116390705387417e+01 9.9888962100314007e+00 1.0440987673101146e+01 -2 2 1
3766 2 1.5368993584982718e+01 9.5183918182643126e+00 1.2254505675892288e+01 0 0 1
772 1 1.4536396389256506e+01 1.0791100257583802e+01 9.9662920046307306e+00 -1 0 1
93 1 1.7969180538715907e+01 8.3088092653765369e+00 8.8147034542345022e+00 -1 -1 2
3954 2 -2.1280416056313505e+00 -3.9523590785142271e-01 1.5553928729683690e+01 2 2 0
399 1 -8.4564394315727576e-01 -2.6050772261603661e-01 1.3113830608060157e+01 -1 1 1
2430 2 -3.2024391998414492e-01 -1.9485879870337379e+00 1.7566779024858469e+01 1 0 0
1838 1 -1.5108771459024206e-01 8.4599546680727444e-01 1.6691311815291456e+01 0 1 0
3086 2 1.2738379094246031e+00 -6.7225127394602491e-01 1.5124899315259018e+01 1 1 -1
2008 1 2.6533583728241696e+00 -1.5584714715370880e+00 1.7485842516649846e+01 -1 -1 0
1450 1 2.8775760645838089e+00 1.4657991161427684e+00 1.4302357957725551e+01 0 -1 2
3188 2 5.0155252433123465e-02 2.2116571552473738e+00 1.4147242016032518e+01 1 1 1
374 1 3.7493647767039349e+00 -9.6883033454445133e-01 1.4187194019279140e+01 -1 0 1
864 1 3.3356494443879727e+00 6.8848715340290845e-01 1.6569360100205227e+01 1 1 1
2778 2 6.6218640932559403e+00 -1.2993953496589590e+00 1.3424528718414347e+01 0 1 1
3461 2 5.3630271594468146e+00 -1.1739177169984856e+00 1.6486451492657650e+01 0 -1 1
454 1 5.3865253321511979e+00 9.4320269832805925e-01 1.4796376073141865e+01 1 3 0
499 1 5.6975380287474868e+00 1.5903701358470115e+00 1.7398043915508961e+01 0 0 0
3170 2 7.9097479077972732e+00 1.7455832081049030e+00 1.3122836339762459e+01 1 0 0
496 1 9.1842168928298751e+00 -7.3587939024716653e-01 1.3107935134671049e+01 -1 -1 0
2658 2 8.0572448460296027e+00 1.1228726631050794e+00 1.6165065392970931e+01 -1 0 -1
2041 1 8.3518508925524788e+00 -1.3816680486025064e+00 1.5523094694438505e+01 3 1 0
2592 2 1.2363219604970356e+01 1.1366342261267515e+00 1.7163573919491501e+01 0 0 1
3133 2 1.1078400570456960e+01 -7.5622303288931891e-01 1.5038886279239751e+01 0 0 1
2246 1 1.0427386167700011e+01 1.7564054884042006e+00 1.4713018561378782e+01 1 2 1
3952 2 1.3069713814625388e+01 1.8016239889353893e+00 1.3906117900734976e+01 0 1 -1
3418 2 1.6307210216541606e+01 -1.8705912431549665e+00 1.6026523792206302e+01 -1 1 0
718 1 1.7075235106702927e+01 -3.6189589169061342e-01 1.3699874458241759e+01 0 1 0
3419 2 1.5689882503298918e+01 1.2992874868705035e+00 1.5518272351948724e+01 0 0 0
1922 1 1.3710870269382587e+01 -9.1320842147189851e-01 1.6027683189922538e+01 0 0 1
2630 2 1.4337930518341526e+01 -1.2839779362663943e+00 1.3432468402314322e+01 0 1 0
1997 1 1.5864407616562612e+00 2.5208387827697445e+00 1.6586178184074004e+01 1 1 -1
3596 2 -1.1826341200550323e+00 3.1970955264616370e+00 1.7393607494649569e+01 1 0 -1
581 1 4.4197224769144317e-01 4.6513139642914387e+00 1.5669358480402153e+01 0 1 0
199 1 2.2868988053706332e+00 3.8124135591796993e+00 1.4437848779353452e+01 0 1 0
1075 1 2.3018041743269197e+00 4.8245686609255261e+00 1.7329058606832753e+01 -1 0 -1
3526 2 -1.9273535440047804e+00 4.7133018194880130e+00 1.4097781065984570e+01 0 1 0
487 1 -2.0090502370217922e-01 5.7016041565765123e+00 1.7880645387500973e+01 0 2 1
2515 2 3.0150202918191793e+00 6.4317242347310817e+00 1.5097003720606978e+01 0 0 -1
3597 2 7.4270101663048784e+00 4.9990963167048346e+00 1.3157050555334271e+01 0 1 -1
2426 2 4.2040942307256692e+00 3.3519475800027081e+00 1.6093874798650521e+01 0 -1 1
1444 1 4.7296184364529941e+00 5.7836831294393551e+00 1.7426224722022933e+01 1 0 1
806 1 6.5322833256623003e+00 3.1050963484050049e+00 1.4905019074350957e+01 -1 -1 1
1936 1 5.7133489739563581e+00 5.4677859570447449e+00 1.5161464461273056e+01 0 0 0
2905 2 7.1666643447687068e+00 4.0766889029387103e+00 1.7388634472050743e+01 0 0 0
761 1 1.0081116772674299e+01 2.6540643058886353e+00 1.7132551941278610e+01 1 0 1
1653 1 8.3163817417222354e+00 6.0282465195703168e+00 1.5658722740186462e+01 0 0 0
720 1 9.9954961621705660e+00 5.7823071997120445e+00 1.3561517301099229e+01 0 -1 -1
2156 1 8.9835536593386180e+00 3.6930324348403216e+00 1.5029363942492914e+01 0 0 1
2651 2 1.1739158103610357e+01 4.1565674705861140e+00 1.5316084519433563e+01 -1 1 -1
2682 2 1.0193003369714738e+01 5.3979943245560342e+00 1.7708525165217530e+01 0 0 0
1871 1 1.3054998378631156e+01 6.0575070404218838e+00 1.7199507098559419e+01 0 1 -1
732 1 1.2435065142817157e+01 3.7500262986392912e+00 1.8039662915268487e+01 0 0 1
1547 1 1.4209223571939734e+01 3.4929884192872587e+00 1.6265617043871462e+01 0 2 -1
1257 1 1.7278828373465743e+01 2.7519432303100135e+00 1.3661975438056086e+01 0 1 -1
803 1 1.4977680431427533e+01 3.9233933084523249e+00 1.3628886156254371e+01 0 2 0
753 1 1.4098194675078428e+01 6.0227563051680644e+00 1.4978051392134720e+01 1 1 -1
2730 2 1.6662458256382386e+01 4.7879008653815154e+00 1.5862472353675177e+01 0 -1 -1
124 1 2.4130159830827456e+00 1.1166549653926408e+01 1.4507391767257758e+01 -1 2 -1
3637 2 -1.9948263794997396e+00 9.6711246347881055e+00 1.6563658737052645e+01 0 1 0
1911 1 1.6792957835214715e+00 7.1433600231180812e+00 1.7558910972193399e+01 0 -1 -1
2612 2 1.6037997519251346e+00 8.6020174914121572e+00 1.3128504414641093e+01 1 -1 0
1913 1 -1.8156589627549005e+00 9.3932589852630031e+00 1.3588331669890900e+01 0 -2 0
2163 1 -5.1180228079759083e-03 1.0480495358545767e+01 1.4868506453353504e+01 1 0 -1
2452 2 -2.5391336327411240e-01 7.3884711775033995e+00 1.5457437063112323e+01 0 -1 -1
3329 2 1.5707587152303657e+00 9.6792573922779965e+00 1.6841900663511030e+01 1 0 0
3132 2 5.3439954422542435e+00 7.5600142244386728e+00 1.3080217634572199e+01 1 1 0
2051 1 3.8628422192233254e+00 8.3973627342952284e+00 1.7726460760242333e+01 1 1 0
2816 2 6.3296263451781023e+00 7.8319219697607743e+00 1.6427813285269330e+01 0 0 0
3374 2 5.9387596864953593e+00 1.0462935576412910e+01 1.4770000147989311e+01 0 0 0
1605 1 3.7080891847126818e+00 8.9512160078049199e+00 1.5170786511644646e+01 2 0 2
1854 1 4.0401578034736714e+00 1.1005915786814713e+01 1.6613702054254489e+01 1 1 1
1858 1 8.0100810948490366e+00 1.0308162064397321e+01 1.6470736022117691e+01 0 0 1
320 1 9.2042158060744690e+00 7.9795551037517480e+00 1.6782046741878027e+01 -1 -1 1
2857 2 1.1428716464702951e+01 7.2404893493943021e+00 1.5315234230769992e+01 -1 1 0
2277 1 1.0996055395342115e+01 9.8111533600181264e+00 1.4169858827823102e+01 -1 0 0
2837 2 8.5693855107042580e+00 8.4598808613180498e+00 1.4175451085460701e+01 -1 0 1
3911 2 1.0773616483249095e+01 1.0241634588956797e+01 1.6903651706524929e+01 0 0 -1
884 1 8.8032181364850626e+00 1.1189814783276953e+01 1.3908251024639725e+01 0 1 2
3606 2 1.3924272351657748e+01 8.7800675688319334e+00 1.6197322588096608e+01 1 0 0
3805 2 1.6408798633032784e+01 7.5192830085909126e+00 1.4408151175155872e+01 0 0 0
2640 2 1.7621102786326613e+01 9.5088464906736156e+00 1.6616673098731759e+01 0 1 -1
763 1 1.3483577222398223e+01 8.0012431561823849e+00 1.3426708155223798e+01 -1 0 1
1511 1 1.3481150862353763e+01 1.0527444827690635e+01 1.4140529693396818e+01 0 0 2
264 1 1.6048077924094077e+01 7.3108042808242182e+00 1.7430578040566925e+01 0 0 -1
3023 2 3.3588395301224443e+00 9.2013625429848371e+00 7.9740905202938865e+00 0 1 0
3380 2 -9.3531451501102336e-01 -3.3428203375064136e-02 2.1383065921693426e+01 1 0 0
3968 2 1.3510056017689211e+00 6.8195289383097535e-01 1.8850025567914741e+01 1 0 -1
1888 1 -1.4797278724599656e+00 3.6108510998546128e-01 1.8687430815263351e+01 0 2 -2
3803 2 2.1615220388963579e+00 -5.0825674520703634e-01 2.1736840698405679e+01 1 -1 -1
3290 2 1.2646955886686158e+00 2.2239987375792944e+00 2.2078007446128467e+01 0 1 -1
418 1 8.2294377645489680e-01 -2.0583738837726835e+00 1.9946294385820469e+01 1 1 0
1442 1 3.3738999503939908e+00 1.6614150556104628e+00 2.0265458997236951e+01 1 -1 1
3432 2 5.4889062349424256e+00 -7.7097559047928654e-01 2.1008730622981666e+01 1 2 -1
2173 1 4.2187611203806492e+00 1.2156740330957887e+00 2.2556758567254224e+01 0 0 1
270 1 4.2911393279098560e+00 -2.2889425353968651e-02 1.8760270535197630e+01 0 0 3
47 1 6.9472807235205405e+00 -3.1509436634613275e-01 1.8596569693100179e+01 -1 -1 -1
2859 2 6.1390672230650924e+00 2.2082444294922086e+00 2.0152768939074647e+01 0 0 -1
1584 1 8.0253922217045730e+00 6.4434273915085161e-02 2.0989905043384429e+01 1 1 -1
1963 1 8.3151393489453653e+00 1.9108310509133632e+00 1.8838897416371822e+01 0 1 -1
1294 1 1.0299407460486679e+01 6.6567670213747343e-01 2.1444333375953821e+01 0 1 -1
2997 2 9.7488035244123505e+00 -4.4334512206701326e-01 1.8501768443919111e+01 0 0 0
3965 2 1.2738921601236106e+01 1.9273910982691511e-01 2.0373386240512851e+01 1 0 -1
3317 2 1.1988908205089409e+01 2.1409122533160243e+00 2.2939394213233225e+01 0 1 0
1497 1 1.1782461797949081e+01 -6.2420485419507132e-01 2.2985237135933872e+01 -1 0 -2
3829 2 1.2325793987002330e+01 -2.0286037556983407e+00 1.8466417069680709e+01 1 1 0
2550 2 1.0201333192154172e+01 -2.0478151688350859e+00 2.1348197264246302e+01 -2 0 0
1540 1 1.7538162615363426e+01 -1.0461453557097580e+00 2.1066011493980728e+01 0 0 0
2000 1 1.5407698956170059e+01 1.0398272630533345e-01 2.0571848132565389e+01 1 0 -1
2414 2 1.7567836180687852e+01 1.9269120711427705e+00 2.0689414762683562e+01 -1 0 -1
1273 1 1.5453904379093132e+01 -1.7276784702722785e+00 2.2468431742874166e+01 0 -1 -1
2065 1 1.6542049827556657e+01 6.1711604576312595e-01 2.2842674360349694e+01 0 1 -1
1634 1 1.7411004157801351e+01 -1.2256920839453556e+00 1.8507289047389065e+01 1 0 2
1183 1 1.4787004342608302e+01 2.1956443588106058e+00 2.1824684000697456e+01 0 0 0
1205 1 1.4049128255482433e+01 1.9683336377389038e-01 2.3010009626693545e+01 0 -1 1