LAMMPS data file via write_data, version 3 Mar 2020, timestep = 4499500

4000 atoms
2 atom types

-2.6396398167868078e+00 3.8739639816782088e+01 xlo xhi
-2.6396398167868078e+00 3.8739639816782088e+01 ylo yhi
-2.6396398167868078e+00 3.8739639816782088e+01 zlo zhi

Masses

1 63.546
2 91.224

Atoms # atomic

3910 2 1.1318335825616237e+00 1.3775418651160543e-01 8.0614416582886372e-01 1 1 2
1283 1 -1.0378030540644250e+00 9.1622075072771203e-02 -1.4684072129178469e+00 2 1 2
3902 2 -1.9799635848810555e+00 8.2691748046293245e-01 1.4069222673935631e+00 1 0 0
1487 1 -8.4910201581675393e-01 -1.6217076885639243e+00 3.7985933530374627e-01 0 0 2
547 1 9.2796742161970869e-01 -1.3329635801479423e+00 -1.6060344729225593e+00 -1 0 0
3095 2 1.3222338731193730e+00 1.3567424117046620e+00 -2.2952478939491079e+00 1 -1 1
288 1 3.1230737310166248e+00 -3.3230692145276031e-01 -1.0873626380337955e+00 1 0 0
65 1 5.0237500659324192e+00 -1.7469305274929581e+00 -1.7285163065292419e-01 0 0 -2
125 1 5.3950852098457389e+00 8.1214675304205342e-01 -8.0747492879959726e-01 1 1 0
428 1 3.9955526673826114e+00 -1.5637355865641567e-01 1.3265679335976475e+00 1 1 2
3691 2 7.1925531745905502e+00 4.1059728247290161e-01 1.5278685912608267e+00 1 1 0
647 1 7.2525130929128032e+00 -8.6300022390040110e-01 -1.1864415344212145e+00 1 -1 2
2704 2 9.5976170340430365e+00 -7.6900428786482977e-01 3.5358691929686348e-01 -1 0 1
96 1 1.0721348380598769e+01 1.3334741079575720e+00 -1.1903389701112210e+00 -2 1 1
480 1 9.6217636955295465e+00 -8.4093191951778601e-01 -2.3575144522237066e+00 -1 0 0
3765 2 1.2704491429624527e+01 -6.6386523094966132e-01 -9.4429684331282537e-01 1 0 0
2533 2 8.0145159166911952e+00 1.7705830424448363e+00 -1.1842654830552011e+00 0 0 0
3447 2 1.2024414014921314e+01 4.1412501505653454e-01 1.8620711300245629e+00 1 0 0
78 1 1.5413748075595961e+01 -1.4905348082970982e+00 -1.5039783543455565e-01 1 1 1
3909 2 1.5855118573679420e+01 1.2368025329375385e+00 -7.7203885646072590e-01 -1 1 0
109 1 1.4737084637410270e+01 4.7761154098358105e-01 1.4738536663847883e+00 0 0 0
157 1 1.3712690955743675e+01 -1.6960551657534744e+00 1.6769519824485011e+00 0 2 1
3716 2 1.7131674114890462e+01 -1.1335143008232635e+00 -2.3093402417179059e+00 0 1 0
676 1 1.8014880641525941e+01 1.8517311648657193e+00 -2.4179459847771523e+00 0 1 -1
11 1 -2.4288335331575195e+00 4.5349970773618393e+00 -2.0549026369348438e+00 0 0 0
1498 1 -3.5557018388376704e-01 2.3301965042876827e+00 -3.5775777898911265e-01 1 1 2
2963 2 5.0339019318938938e-01 4.5848756593969835e+00 -1.7650166943288141e+00 1 0 1
296 1 1.6903557031089216e+00 4.7319016734804746e+00 8.8591483844541896e-01 0 0 0
2978 2 -2.0178941561301214e+00 4.4954125380643450e+00 5.6247629859631987e-01 1 -1 0
1234 1 4.1765151193922545e-02 6.4574782178779113e+00 5.3460458419099766e-01 1 0 2
2989 2 3.0993309142588519e+00 2.3906928976300259e+00 2.1888012918781152e-01 0 1 1
3998 2 6.1985674481701647e+00 3.2447281213527974e+00 9.4874962123883755e-01 1 2 2
3223 2 5.0687365447328254e+00 3.4494907250724101e+00 -1.7431885931224018e+00 0 -1 1
1765 1 4.2152583718554553e+00 5.0500058097788845e+00 9.2102314461229140e-01 1 1 2
486 1 3.1064305460987489e+00 5.5121756416495131e+00 -1.2670886193316631e+00 0 0 -1
2067 2 6.0297572834138631e+00 6.3424692910008069e+00 -9.6107818905233211e-01 -1 2 0
1766 1 8.0918737828893086e+00 4.5168366749534998e+00 -5.1666646069513389e-01 -1 -1 1
3710 2 1.0497294632669325e+01 4.1178468608433878e+00 -1.6026975644589789e+00 0 0 0
3262 2 9.8232781273275975e+00 2.7610831906236450e+00 1.2065034502380172e+00 1 0 0
734 1 1.2033640772870788e+01 4.6172893485360875e+00 1.4550494138281449e+00 0 0 1
3163 2 1.0119578617908088e+01 6.3528348241014090e+00 5.6443094491955348e-01 0 2 1
233 1 7.9714294300115363e+00 5.2556167262213487e+00 1.8750983048308596e+00 0 -1 1
52 1 8.7147788229665295e+00 6.5601772029543248e+00 -1.9385948102084085e+00 -2 -1 0
2001 2 1.3000546923640531e+01 2.5218926331184193e+00 -1.4116799496579713e-01 0 0 0
4 1 1.5901539750601870e+01 5.8598185915081906e+00 -2.0377012557923200e+00 1 -1 1
3531 2 1.3297714109166341e+01 5.5615026987893117e+00 -7.8071379426014365e-01 1 1 0
1277 1 1.5470422042622268e+01 4.0718482969593151e+00 -1.5363494804800526e-01 0 -1 0
3436 2 1.7205765749561781e+01 5.5905602359560920e+00 1.4444270370847896e+00 0 0 1
1515 1 1.7508433029502367e+01 2.8342293597388188e+00 8.8480688289302556e-01 1 -1 2
1990 1 1.4445643617302164e+01 5.6206160986642182e+00 1.6987781131086024e+00 0 1 0
3404 2 -1.8766680826041506e+00 7.0412262203950942e+00 -1.3610227383971554e+00 1 -1 0
2158 2 4.9166956108414261e-02 9.2325335335101251e+00 5.0912587572903156e-01 0 -1 0
1368 1 -1.1471275613922047e+00 9.6147863233977624e+00 -1.8018306972498541e+00 0 2 1
925 1 -2.1565036806575701e+00 7.3825168339949485e+00 1.4950985017981573e+00 -1 0 1
3413 2 1.1542026578963158e+00 7.7096735602573343e+00 -2.0955039845637558e+00 1 0 -1
595 1 2.5612704862387154e+00 9.6662534796598241e+00 -6.3086858470575535e-01 2 0 -1
2563 2 2.6596916730235227e+00 7.4360929832856382e+00 1.0367685007598046e+00 1 0 -1
2975 2 7.2668090256301330e+00 9.5857588791804158e+00 -2.2941955138785382e+00 1 -1 0
645 1 3.8995881035323139e+00 7.9113540359369878e+00 -1.7731033793715096e+00 -1 1 0
2761 2 5.2188366379722355e+00 9.1570025085332851e+00 2.4603118456687145e-01 -1 1 1
138 1 1.1181265657448860e+01 6.6029409367619767e+00 -2.5274547930068398e+00 1 1 0
1058 1 7.9103162040472306e+00 8.0422743210184358e+00 6.1042333441001517e-02 0 1 1
2490 2 7.9673316540068164e+00 1.0752072094299960e+01 4.9697659580918563e-01 -1 0 0
2997 2 1.0063178369753336e+01 9.1755387841896123e+00 -1.3931012898919699e+00 -1 0 -1
420 1 1.0157017037220339e+01 9.0784898549279109e+00 1.3685323562413263e+00 0 -1 0
548 1 1.2125718686746310e+01 1.0384773094236934e+01 3.5980844258857525e-01 -1 0 0
1300 1 1.2449328991661355e+01 8.0821435228101386e+00 -9.2030781757037161e-01 0 0 1
2040 2 1.2737092772265175e+01 7.9291084700081917e+00 1.7192874749329272e+00 0 1 0
1129 1 1.1935241958620113e+01 1.1091816100141827e+01 -2.3511464400200568e+00 -1 -1 0
1578 1 1.7530379700391272e+01 8.4621483931427193e+00 1.2595820744047912e+00 1 0 0
2340 2 1.4225033486963223e+01 1.0086898416284102e+01 -1.3735380710725758e+00 -1 1 1
2272 2 1.5315020875164866e+01 7.7491279891036555e+00 -3.4984937078006872e-02 1 1 0
1555 1 1.6873630299486251e+01 1.0035772335146008e+01 -5.9291414645826102e-01 1 1 0
1232 1 1.8003554931570598e+01 7.0691772445507368e+00 -9.3668095030439047e-01 1 0 0
3885 2 1.4742757013692742e+01 1.0625529338866654e+01 1.8840087308006250e+00 1 0 0
2680 2 -2.0801618557379031e+00 9.8649049955827461e-01 4.4829387046270899e+00 0 -1 0
1654 1 2.1789842691764161e-01 3.0513688614538603e-01 3.3010106116638331e+00 1 2 1
21 1 6.3011806025880501e-01 -1.1274936184392397e+00 5.3901046788325004e+00 0 -1 -1
3073 2 -4.4328087673134720e-01 -2.1925071262916473e+00 3.0051595733029908e+00 0 0 0
3831 2 1.3173689082948505e+00 1.7721348731196294e+00 5.3615154002065726e+00 1 1 0
561 1 2.5185964137103802e+00 1.0611407836897215e+00 2.9988464789068390e+00 2 0 0
2421 2 2.6022004525921529e+00 -1.7308585089109614e+00 3.3224907181872787e+00 -1 0 0
1986 1 7.2845416287379852e+00 -2.1976922307678715e+00 5.6656243490997067e+00 1 1 1
1651 1 3.2061344014950697e+00 -1.5578851270978733e-01 5.3583522245891837e+00 1 0 1
2234 2 5.6416794654147004e+00 -1.4654382410094899e+00 3.4011585020652131e+00 0 -1 0
2277 2 5.1619925552449146e+00 1.5081500624092952e+00 3.3797327301620141e+00 0 0 0
2356 2 5.5805162887903332e+00 1.4875661970486398e-02 6.3295002354206353e+00 1 2 1
1418 1 7.5799232815721513e+00 5.4629844017805373e-01 4.4996004865581485e+00 -1 1 0
529 1 4.4989150162640978e+00 -2.6366595438307074e+00 5.6536644771840070e+00 -1 1 1
2828 2 8.9180900583722504e+00 -1.7981217355964108e+00 3.4116843069000709e+00 1 0 1
491 1 9.8111622427773888e+00 8.1621729881012861e-01 3.2439248933718581e+00 0 1 1
667 1 9.7523137395533173e+00 -2.1072834019296938e-01 5.6240186098152893e+00 1 0 -1
3494 2 1.1998680333571347e+01 -1.5254931444031028e+00 4.1339122987542822e+00 1 0 1
3341 2 1.2101254089468533e+01 1.0814458465197623e+00 5.6183849565091428e+00 1 -1 0
3355 2 1.5300286514643012e+01 -1.4345029200510555e+00 3.9164335603340312e+00 0 -1 1
228 1 1.3962220049115327e+01 8.3367229855302849e-01 3.8303654083166983e+00 0 0 0
1099 1 1.3972209568141839e+01 -7.8817777483224893e-01 6.1984495419608727e+00 1 0 1
3791 2 1.7541212071356000e+01 5.6713847457666899e-01 2.5194346914780255e+00 0 0 1
2139 2 1.6353044519615135e+01 1.6733022602148244e+00 5.0278544969584225e+00 -1 0 0
1626 1 1.7715798621862550e+01 -2.4324405005083256e+00 3.3178755800176720e+00 0 1 -1
3096 2 3.1228481707943567e-01 2.9437276024352474e+00 2.4285165008017104e+00 -1 -1 1
1532 1 -1.1470296991861679e+00 5.5068452411137461e+00 2.8320129628369903e+00 0 0 1
3429 2 -7.1649555844761514e-01 4.1396144711743217e+00 5.3588079646018967e+00 0 0 -1
1223 1 2.1077473609531916e+00 4.7809841297859865e+00 5.8293521190835378e+00 2 1 0
1575 1 1.1560955178215711e+00 5.5348466511785333e+00 3.6222623538073773e+00 2 4 0
169 1 -2.3451395898247904e+00 3.3422548032362611e+00 3.0462272719317243e+00 1 1 0
1212 1 3.9648438359313349e+00 2.2886966830446669e+00 5.8213555369263386e+00 2 1 0
3530 2 3.1141579967721853e+00 3.6872147623071534e+00 3.2761439429158985e+00 0 1 0
1678 1 5.7165567812643303e+00 4.5223837442111066e+00 3.2983390359553528e+00 1 -2 0
441 1 6.6345861062911915e+00 2.8625983950214344e+00 5.2675169727726754e+00 0 1 0
3800 2 4.9652503685758171e+00 4.7826198796159476e+00 6.0090391256387594e+00 0 -1 0
671 1 3.6568042962917220e+00 6.2251767645575669e+00 3.2548010045947668e+00 0 -1 2
2109 2 7.8656913238417001e+00 5.5210683549603612e+00 4.6017306094083237e+00 0 1 1
1130 1 7.8222193209277595e+00 2.9393070904974135e+00 3.1295822121058485e+00 0 0 0
900 1 1.0110696776110466e+01 4.7132537625159161e+00 3.1481156288766003e+00 -1 0 -2
2258 2 9.5213208007617052e+00 2.7180136940845117e+00 5.2008265831911302e+00 0 1 0
467 1 1.0439961608647669e+01 5.2108179193879272e+00 5.6014068603848024e+00 -2 1 1
1865 1 1.1933996768099938e+01 2.7675072103910408e+00 3.2758861166691613e+00 2 0 1
466 1 1.1976682655399822e+01 3.5381592643838760e+00 6.5051745284922440e+00 -1 0 1
3790 2 1.2814586119059902e+01 5.4462525120056533e+00 3.9698280894072910e+00 -1 0 1
223 1 1.7786565375422299e+01 3.4773184786322044e+00 3.2105511344779591e+00 1 0 0
3039 2 1.4887391122055181e+01 3.0259160962895937e+00 2.3483203460802313e+00 2 1 1
1016 1 1.3924320017190112e+01 3.0817617682411855e+00 4.9371374349438408e+00 0 1 0
2879 2 1.6126435924993551e+01 5.0597610274046163e+00 4.6730648274465167e+00 0 -1 1
423 1 1.7904806387068430e+01 3.8658521758415771e+00 6.4336838956607192e+00 1 2 -1
518 1 1.3825133050563476e+01 5.0734502334640936e+00 6.4976296088875465e+00 0 2 0
1270 1 2.1639031200471948e-02 6.8350465413131420e+00 5.6556766997473318e+00 2 -1 0
2753 2 -2.1844758117642611e+00 7.6076928245151727e+00 4.3234546486386574e+00 1 0 -1
1284 1 2.0636947482405743e-01 7.6526187430481709e+00 2.8249242622397759e+00 0 0 1
1881 1 1.6066111781020549e+00 9.6272915494557321e+00 2.7895255193738491e+00 1 1 0
164 1 1.0835298144310590e-01 9.2264170857764967e+00 4.8142865124910967e+00 -1 1 1
3684 2 -1.6669337001419993e+00 1.0244689418410511e+01 2.7971830159481499e+00 0 0 0
2786 2 2.5027568726614104e+00 7.7904106001013869e+00 5.0668537928679758e+00 2 1 0
2579 2 1.7952752538651936e+01 4.2648959167627298e+00 -1.3467430299192007e+00 0 1 1
2883 2 5.9386576592685980e+00 7.0330658439935831e+00 2.1964628577157459e+00 1 -1 0
708 1 5.2767773715929049e+00 7.1799038196082439e+00 4.8398193694252321e+00 0 -1 0
1437 1 6.4098597181530810e+00 9.9703919395246068e+00 2.6097383977625404e+00 2 -1 2
1353 1 4.0863785573696561e+00 8.8879618338448321e+00 2.9990615786747767e+00 1 0 0
2570 2 5.6804276901526514e+00 9.7863027283369064e+00 5.2762783340636128e+00 0 0 -1
1365 1 3.0849400888715266e+00 1.0584387177687766e+01 4.6728369018313289e+00 0 1 1
1522 1 7.7119603013419180e+00 8.1372048752504007e+00 4.9456282539072518e+00 2 0 -2
370 1 8.3566803037454349e+00 7.9277936831660973e+00 2.4899600468918797e+00 -1 2 1
2695 2 1.0505147912617577e+01 7.4847447791626216e+00 3.8663469785463196e+00 -1 1 0
1349 1 1.1703205770664917e+01 1.0290468992177416e+01 2.8779304526100322e+00 2 -1 0
2635 2 9.0706795774246469e+00 1.0293075307805903e+01 3.9330989918791417e+00 1 0 2
1334 1 1.0889893155855511e+01 9.2833813263204483e+00 5.9933964892201086e+00 0 0 -1
1255 1 1.2082579632286354e+01 7.0082183490548697e+00 6.2351045036843669e+00 0 -1 -1
600 1 1.3036719259297289e+01 8.6394084254869217e+00 4.3735455923060043e+00 -1 0 -1
884 1 1.7338378186837325e+01 9.5842523961973232e+00 3.4461584487528834e+00 0 -1 1
3339 2 1.5434357425790779e+01 1.0240931694313035e+01 5.5235558023601694e+00 1 0 0
487 1 1.4699779790987687e+01 7.2744714725244677e+00 5.7439597934910012e+00 1 -2 1
2207 2 1.5480454498849429e+01 7.7016819274542581e+00 3.1709581028120235e+00 -1 0 0
2370 2 1.7502844913748621e+01 7.8182373530260350e+00 5.8843166074456725e+00 1 1 -1
3703 2 -1.9341830287179218e+00 -9.2574014258504955e-01 6.6627160738213682e+00 1 0 -2
3587 2 6.7436194532916716e-02 -2.4186953966699463e+00 8.1443101748023583e+00 0 0 0
1811 1 1.3599318635724593e+00 -6.0665612075687259e-01 9.7760183431058234e+00 1 1 0
1696 1 6.8791506454781048e-01 1.6628019113102699e-01 7.4965471366631160e+00 0 1 1
1618 1 -1.6658038712687775e+00 -2.4788389980239645e-01 9.6079711385334079e+00 0 0 -1
1273 1 -1.0663963400705685e+00 1.7366070224353374e+00 6.8982390145126313e+00 0 0 -1
2062 2 8.4808115468142820e-02 1.8513593732360372e+00 9.5788080023271647e+00 1 2 0
365 1 -4.3773374316124469e-01 -2.1332151095571406e+00 1.1061109259570298e+01 1 0 0
3741 2 2.9035911545890434e+00 -1.7800910620145529e+00 7.6173450485442196e+00 1 2 2
3127 2 4.1443503325445494e+00 -1.0705067372189423e+00 1.0409365800063988e+01 1 1 0
3204 2 3.1147565568192030e+00 1.1535947323021198e+00 8.3573594354571892e+00 0 -1 0
770 1 5.9278855799324948e+00 8.9575797713382865e-02 8.9543208216837229e+00 -2 1 1
270 1 5.7608684343382173e+00 -2.3469865726796608e+00 7.8869543284254853e+00 -1 0 0
2492 2 6.9319251723080590e+00 -2.4743396263999440e+00 1.0401445918799311e+01 -1 -1 0
2449 2 1.2302479080164682e+01 6.7043740457897449e-01 1.0904840980276649e+01 -1 0 0
837 1 7.8523418277123458e+00 1.5298010822197714e+00 6.9418045874978471e+00 0 -1 1
3424 2 9.5537743572280860e+00 -4.2336521054635945e-01 1.0460103485899070e+01 1 0 1
2100 2 8.3920261889627188e+00 -8.9775292660940798e-01 7.8755908097771261e+00 0 1 1
2088 2 1.1514382501753417e+01 -1.1243860244527601e+00 7.9852153887249866e+00 -1 1 -1
1401 1 1.1999784071959045e+01 -2.0971896537675581e+00 1.0766112141176658e+01 2 1 0
2520 2 1.0423721775675366e+01 1.8736279728004428e+00 8.3053679128157860e+00 -1 1 1
311 1 1.5880965442560985e+01 7.9695766410809998e-02 7.4283054161279747e+00 -1 0 0
1208 1 1.3494846601108023e+01 8.4578897156311550e-01 8.0760508521160368e+00 1 1 -1
1314 1 1.6732655669009660e+01 -1.2819171167807479e+00 9.5897681942658437e+00 0 0 0
3234 2 1.5506773164270047e+01 1.4774867421814193e+00 1.0161134819946863e+01 -1 -1 0
3499 2 1.4197376172493268e+01 -1.9735742810292423e+00 8.8544507545934774e+00 1 0 0
470 1 1.6568793573594117e+01 7.0717601015624076e+00 9.6241798098918618e+00 0 -1 1
3749 2 1.8037775864837656e+01 1.4244664940388887e+00 7.9812343361124345e+00 0 1 -1
188 1 9.8744607528191386e-01 3.2265050614313981e+00 7.5977932640149781e+00 -1 1 1
3532 2 1.8396449408329651e-01 5.7405482046520966e+00 8.1045062199909843e+00 -1 1 0
1482 1 -7.7315377800181828e-01 4.5416778061610081e+00 1.0721849316057716e+01 1 -1 -1
2506 2 -2.0059462973859135e+00 3.6919106435694253e+00 8.3929806599778480e+00 0 1 0
2112 2 2.1787389556192904e+00 4.1152574506147932e+00 1.0340693627048802e+01 0 1 0
711 1 5.6045677254354924e+00 2.5091940942049726e+00 7.8204378353577120e+00 0 1 0
1191 1 3.3911589669970130e+00 3.7617707901469908e+00 7.9374503933024982e+00 -1 0 0
3832 2 5.6396403101022727e+00 4.9291749408560053e+00 9.4124459138015606e+00 -1 -1 0
3717 2 4.8282722131272999e+00 2.2921568033765789e+00 1.0750522699956724e+01 0 0 1
3664 2 3.2386308909530594e+00 6.4474817416928101e+00 8.0402967723873058e+00 0 0 -1
2664 2 7.7272764517139105e+00 2.0306219115259019e+00 9.6298982314776715e+00 0 0 1
3418 2 7.9740703605340162e+00 4.4051439402683572e+00 7.3271630100677392e+00 0 1 0
2655 2 1.0867146350546012e+01 5.3876560212726545e+00 8.3917199646882743e+00 1 0 0
1966 1 8.5149973365695963e+00 4.7115335620353394e+00 9.9036246297334589e+00 0 -1 2
3213 2 1.0649426537273509e+01 3.4903183152080466e+00 1.1030492650500380e+01 -1 1 -1
1768 1 1.2806370022616354e+01 5.3303062312684881e+00 1.0941480134021250e+01 1 0 0
2354 2 1.3061336848990971e+01 3.3285653448334749e+00 9.1197885627634108e+00 1 0 0
1993 1 1.7631115857822191e+01 3.9999990816502127e+00 8.8284014231568975e+00 2 2 1
407 1 1.6146800207366368e+01 5.7573297805118635e+00 7.4885061827689885e+00 1 0 1
3455 2 1.5351724581875363e+01 3.0704778492037166e+00 7.4177065137602902e+00 0 0 0
2894 2 1.5607744235614181e+01 4.5982992724333629e+00 1.0459018410797713e+01 -1 2 -1
3162 2 5.9394559076350983e-01 6.8525638360914982e+00 1.0870144655662214e+01 0 1 0
2364 2 -1.2951204593030599e+00 8.9929595993551654e+00 7.1864977889587642e+00 0 1 -1
1715 1 1.2382221239801083e+00 8.3270820782825314e+00 7.5148537069619259e+00 0 -1 0
94 1 -1.7171864735437408e+00 7.5022169828924543e+00 9.5131269866248758e+00 0 2 1
3135 2 8.7953003735961710e-01 1.0233762162599808e+01 9.6099560157034460e+00 0 0 2
81 1 -2.0959044262908084e+00 9.9798526383592101e+00 9.7268834016917065e+00 -1 -1 0
1374 1 2.5732470368495282e+00 8.2794017856628948e+00 9.7727565610679985e+00 0 0 1
3854 2 5.3104168686143796e+00 8.0020491335673078e+00 1.0061486572351622e+01 1 0 0
1371 1 3.8339960556704860e+00 1.0355238149128228e+01 1.0330835179467645e+01 0 0 1
3282 2 7.0597132846316164e+00 1.0210783252861706e+01 1.0604574986687128e+01 1 0 -1
2079 2 3.6643425972710997e+00 9.5949824814613951e+00 7.5685708979557305e+00 1 -1 0
3009 2 6.3126627065077070e+00 7.2734302837204385e+00 7.3512098548093352e+00 1 -2 -1
347 1 6.0684629162424475e+00 1.0586257440556428e+01 8.0238916028814646e+00 0 0 1
601 1 9.2802122198901529e+00 7.1175717714508089e+00 6.6857684880119734e+00 0 -1 1
2427 2 1.1562963355609616e+01 7.8042490302713396e+00 1.1026526406264807e+01 -1 -1 -1
3922 2 8.4962410432831934e+00 9.6762016210888344e+00 7.2960612708810295e+00 -1 0 0
1897 1 1.1083829602598424e+01 8.2643215493638422e+00 8.3358730691785468e+00 2 0 1
2624 2 8.6022619908597502e+00 7.4217039120181276e+00 9.5080546525971155e+00 0 1 2
3585 2 1.1875579121458253e+01 1.0956047361479039e+01 8.3469454075889917e+00 1 0 2
1998 1 9.7090428320889810e+00 1.0016135451578929e+01 9.8720072101394081e+00 1 -1 1
85 1 1.3251084761226361e+01 9.0657844873627784e+00 6.9334231612808619e+00 -2 0 1
2475 2 1.3736864481456692e+01 6.5676541647421356e+00 8.5986517916817586e+00 -1 -1 0
3857 2 1.6001290067369322e+01 9.5841172832574628e+00 1.0488406754211292e+01 1 0 1
791 1 1.7645989635097045e+01 9.3536950302543751e+00 8.1926859157786414e+00 -1 0 0
186 1 1.3451293634341763e+01 9.0645966880086615e+00 9.5166694028121093e+00 1 -1 1
1132 1 1.5502548781678190e+01 8.4458309355091696e+00 7.7955083887117453e+00 2 0 1
56 1 1.4657221611651970e+01 1.0813572564792878e+01 8.2275515823122465e+00 0 -1 -1
131 1 1.2192346028104160e+00 8.0859533027687958e-01 1.4186399763329042e+01 0 0 -1
1366 1 -4.8396359772500919e-01 -9.9516361360296224e-01 1.3954386259830756e+01 0 1 1
2844 2 1.8601997096479508e+00 -1.2748744761977893e+00 1.2390362362026227e+01 1 0 0
1138 1 -3.4813492960929304e-01 3.4866373506792447e-01 1.1801589298715674e+01 1 0 1
1734 1 -2.0880657694718336e+00 1.1869765034538120e+00 1.3602647570461031e+01 0 1 0
368 1 2.0552378778481133e+00 -1.5231559568093971e+00 1.5056603421956119e+01 1 0 0
525 1 2.1129298027897168e+00 1.2505797973912736e+00 1.1255078703963092e+01 0 2 1
1797 1 3.9338008579594970e+00 4.4866092851205863e-01 1.2962196009432946e+01 1 0 0
1910 1 5.7812530515974228e+00 -2.4438224922998408e-02 1.4732890272543532e+01 0 0 0
2600 2 6.7584876994980370e+00 2.2451398874091266e-01 1.1999900569775727e+01 0 2 0
610 1 4.8292398370440610e+00 -1.7906405763866617e+00 1.2961208831201882e+01 -1 0 1
3371 2 7.2513312707941076e+00 -2.1419037785735009e+00 1.4039163808515212e+01 2 2 0
956 1 4.4458201924651863e+00 -2.1822654076383601e+00 1.5404187343513534e+01 -1 2 1
3434 2 3.4744616640162942e+00 1.0139596244895448e+00 1.5771640014291592e+01 -1 0 0
3848 2 1.0250538837271179e+01 -7.1942412840819214e-01 1.3574666799325744e+01 1 0 1
1395 1 9.4182219049667424e+00 1.5578017143807061e+00 1.2144896695012761e+01 0 0 1
3140 2 8.1963692075873471e+00 1.3480556546657496e+00 1.4518292674480701e+01 0 1 0
3433 2 1.1539135010000674e+01 1.9109965300317713e+00 1.4035682021916049e+01 1 0 0
1896 1 9.0938879274193400e+00 -2.5989637505921572e+00 1.2115709844297104e+01 1 2 -1
3124 2 1.2975490284070407e+01 -2.0325478950747469e+00 1.3339371441477711e+01 1 0 0
793 1 1.4496642811733327e+01 -1.1042421228031938e+00 1.1290005989213711e+01 0 0 1
666 1 1.4063865822868383e+01 6.5296819459093314e-01 1.3041533531680077e+01 0 0 0
604 1 1.5527494039668095e+01 -1.2962559072120363e+00 1.4150375267881866e+01 1 1 0
538 1 1.6473967955589611e+01 8.9766347615019138e-01 1.5180063402371964e+01 0 1 -1
2553 2 1.6934646641653810e+01 -1.3963324045883496e-01 1.2276246351872180e+01 -1 0 -1
3752 2 1.3759802650207227e+01 2.0065018003776380e-01 1.5649887134897412e+01 -1 1 0
401 1 1.8009287086745378e+01 -2.2408150972339236e+00 1.3620914323225652e+01 0 0 -1
3972 2 -1.2094855125023418e-01 2.8981157028919196e+00 1.2643380953267171e+01 1 0 0
130 1 -1.4066762085277174e+00 3.5581100410635971e+00 1.4810151652146779e+01 -1 1 0
3056 2 1.6188322660294556e+00 5.5413593481987906e+00 1.3509542798737723e+01 0 0 0
2484 2 -1.6360704266403501e+00 6.0534779252515314e+00 1.3131223979686560e+01 0 2 1
2292 2 1.2154002728784272e+00 3.3234801613462253e+00 1.5716736787495751e+01 0 0 0
3134 2 2.8823918725396638e+00 2.8978614603472268e+00 1.3216698793291567e+01 1 0 1
582 1 5.5324080338138728e+00 2.3091425991541126e+00 1.3820404197703375e+01 0 -1 1
1667 1 7.1360362834681421e+00 3.9445765953798793e+00 1.4942764091422294e+01 0 0 1
3622 2 4.9612550121949877e+00 5.0116493155161415e+00 1.2655363342258264e+01 1 1 0
2441 2 7.4773669284974194e+00 3.5946039249053969e+00 1.2207683226830980e+01 0 0 0
838 1 6.2988696012543262e+00 6.2898713753735986e+00 1.5255705005498719e+01 1 0 1
3439 2 4.2958527696074080e+00 4.2478250121094856e+00 1.5491260933319953e+01 1 1 1
1682 1 7.1534706676464364e+00 6.2500427482637466e+00 1.1412879501852450e+01 2 0 1
1777 1 3.3407621768175932e+00 6.4617957327458200e+00 1.1201325481373084e+01 0 2 -1
1882 1 9.7065365885283530e+00 5.9511312420268609e+00 1.1719844794635247e+01 1 -1 -1
3690 2 1.1859072791871506e+01 5.2239716868678663e+00 1.3451085395142080e+01 0 0 0
1073 1 9.5298411754268546e+00 3.8193899620234983e+00 1.3921049837704103e+01 -1 1 0
1759 1 8.1790177079835331e+00 6.0291684187726347e+00 1.3676384421940327e+01 1 -1 -1
1486 1 1.1321673320234279e+01 4.0104808547395248e+00 1.5742434170861056e+01 1 0 0
2865 2 1.5836218014287379e+01 2.6941536575133780e+00 1.3230387791473865e+01 -1 0 0
139 1 1.3336096202422517e+01 3.0845207765126972e+00 1.2009586160408048e+01 0 0 0
195 1 1.3671653332389173e+01 3.3572552988672877e+00 1.4571101075631546e+01 1 1 1
536 1 1.5982610878511313e+01 5.1200982425196244e+00 1.4834327678472015e+01 -1 1 -1
1679 1 1.4530821960763589e+01 5.2784305586600766e+00 1.2895807705095029e+01 2 1 1
1816 1 1.7451448318018574e+01 4.6438319451845835e+00 1.2843950003298657e+01 1 0 1
128 1 -2.5976878780087667e+00 1.0617744133074822e+01 1.2309919563325387e+01 -1 -1 0
1263 1 -2.3507532118729504e+00 1.0779529161843479e+01 1.4963466955614237e+01 -1 0 -1
384 1 3.9236512148497082e-01 7.9361785112010388e+00 1.3742202098684523e+01 0 1 0
1384 1 -1.8492626923325342e+00 8.7234681823061635e+00 1.3612637619411814e+01 1 0 0
1361 1 -6.6332771708611937e-01 9.0896679549093342e+00 1.1529715686101934e+01 0 1 -1
2282 2 4.9298935413197853e-02 1.0865647761755461e+01 1.3560411315216552e+01 -1 1 0
3614 2 2.0831686355200310e+00 8.6814906433828689e+00 1.5772145898840062e+01 1 -1 0
2606 2 2.7224606615130167e+00 8.9107852322940104e+00 1.2510760784192174e+01 1 -1 0
1377 1 3.8735616098726346e+00 6.9262472336052721e+00 1.4493521351286656e+01 1 0 0
2110 2 5.9018330989437437e+00 8.0106079121495775e+00 1.3068224044920559e+01 0 1 -2
849 1 4.6866657824544973e+00 9.2839359769501826e+00 1.5099747945669204e+01 -1 1 -2
448 1 7.2663798633113892e+00 1.0345194217378790e+01 1.3763955154487956e+01 1 0 -1
1455 1 1.1641476335685136e+01 1.0861743392037230e+01 1.1301605310969356e+01 1 -1 0
3338 2 8.8735020760257424e+00 8.5923238009859624e+00 1.2501904401300942e+01 0 0 1
59 1 1.1434764117442773e+01 9.4631914641396317e+00 1.3293906911567998e+01 -2 -2 -1
1762 1 1.0344388786193214e+01 7.3405346146222890e+00 1.4237726156602534e+01 2 -1 0
3200 2 7.9299635000648330e+00 8.6128149320191358e+00 1.5809580462028570e+01 0 1 0
1941 1 1.3637289416011516e+01 9.3796875414816014e+00 1.1980546080566382e+01 1 0 1
2144 2 1.3494731067286381e+01 7.7269843491670969e+00 1.4166449377960461e+01 0 0 0
3381 2 1.6844204640066476e+01 7.2129044735116512e+00 1.2601122396903770e+01 -1 1 0
1275 1 1.5617311644475834e+01 9.5490228758151900e+00 1.3478679426246014e+01 -1 0 0
3364 2 1.7829891749666906e+01 9.7573136911197249e+00 1.4948487794118812e+01 0 2 0
1685 1 1.4466812670145487e+01 7.2091268963345723e+00 1.1208455667275500e+01 1 1 0
3425 2 -9.1177732542859347e-01 1.1593113428838273e+00 1.6350017572527104e+01 1 -1 1
782 1 1.2936340914081423e+00 -3.8975891891283254e-02 1.6823389288533029e+01 0 -1 1
3490 2 1.1500351896905876e+00 2.1483078535898592e-02 1.9499656573482984e+01 0 0 1
1548 1 -1.2031497542997542e+00 -8.6955934851517869e-01 1.8429628715874667e+01 1 0 -1
2190 2 -1.7956365548521713e-01 -2.3858957620604841e+00 1.6347525517071954e+01 1 2 -1
3524 2 2.9176476678513819e+00 -1.9501795152099377e+00 1.8023817554430533e+01 0 1 0
2472 2 5.7721008417139075e+00 -8.2566606274685772e-01 1.7431691318113060e+01 -1 1 0
2798 2 4.0750060564189825e+00 1.2257492327994441e+00 1.8893802483172266e+01 0 1 0
2880 2 7.4884217561227953e+00 1.0399972907425941e+00 1.9328203492642082e+01 0 0 -1
3708 2 7.6766368294229554e+00 -2.2484906086083294e+00 1.9375385411527883e+01 0 1 0
1117 1 1.1497110601722657e+01 -1.7557007987107771e+00 1.5818190133226938e+01 0 -1 0
452 1 1.1293583467900827e+01 5.6706128086816010e-01 1.6819512846925438e+01 0 0 -1
3420 2 8.8428159298097242e+00 -6.4712077141253266e-01 1.6595215616807891e+01 1 1 -2
2853 2 1.0050454912349899e+01 -3.3282047603670994e-01 1.9543367091954664e+01 0 1 0
3953 2 1.2537326403224741e+01 -1.4876876017468048e+00 1.8408219011833552e+01 0 1 -1
3170 2 1.2288093824524120e+01 1.6475580896847575e+00 1.9300794046263608e+01 -1 1 0
1818 1 1.5002843222310133e+01 9.1854743558078837e+00 2.4482151231530302e+01 1 1 0
3254 2 1.7585028183606887e+01 -9.8751409057756745e-01 1.8784626658151804e+01 -1 0 0
291 1 1.5931599122327295e+01 -1.2328033287359046e+00 1.6565625870718527e+01 0 1 1
2601 2 1.5232926596921800e+01 9.9556839520284335e-01 1.8283877802330590e+01 -1 1 0
1601 1 1.4531723718309852e+01 -6.9966848195711284e-01 2.0260639394520304e+01 0 0 -1
3233 2 -5.0253088776990396e-01 5.9444375645755994e+00 1.6240847115645717e+01 1 0 0
3489 2 -7.1645429553938489e-01 2.5764765671959635e+00 1.9546041396651781e+01 0 1 0
1694 1 1.6741581957923026e+00 2.2123179291038984e+00 1.8012577075540030e+01 1 0 -1
1995 1 -1.5602538264990393e+00 5.4845065764541587e+00 1.8697309925993341e+01 0 1 1
1735 1 -1.8268675916424626e+00 3.5437215620634479e+00 1.7231835370860438e+01 0 0 0
1141 1 8.0181541041953874e-01 4.5446504560614338e+00 1.8273620326246654e+01 0 1 0
615 1 2.2960509358749510e+00 5.8675603504742107e+00 1.6292487064044352e+01 0 0 1
2727 2 6.1661344048501192e+00 2.1357181452769529e+00 1.6792042862592815e+01 0 1 0
2039 2 3.5906312534587252e+00 4.3288886857734914e+00 1.8446365131064038e+01 0 0 0
1663 1 6.0162346119958983e+00 3.3481613994758712e+00 1.9478902798344961e+01 1 -2 0
290 1 6.3082344532335455e+00 4.8045747259093545e+00 1.7373705734261154e+01 -1 -1 0
3232 2 5.5056362384476039e+00 6.2440710096344141e+00 1.9967671070979193e+01 1 -1 0
2998 2 8.9766465965637945e+00 5.5083817214308919e+00 1.6192219743120091e+01 0 2 -1
3956 2 9.3233950390355904e+00 2.5138191057320567e+00 1.7185550783265807e+01 2 0 0
2908 2 8.3829642823047212e+00 4.6999352755881993e+00 1.9387677999312476e+01 1 1 0
2841 2 1.1249561511012667e+01 4.5490455290199492e+00 1.8336511514385066e+01 -1 0 0
1064 1 9.8789823305552336e+00 2.5247555977876646e+00 2.0260486890482518e+01 1 1 0
1014 1 1.1511964701715206e+01 6.5653794304350388e+00 1.6240391549893104e+01 0 -1 1
287 1 1.2976339837064522e+01 2.5550541740017065e+00 1.6884523257568681e+01 -1 1 0
910 1 1.5517408557284977e+01 2.9110215403852457e+00 1.6251342785636307e+01 0 -2 1
2229 2 1.3823647174866693e+01 5.2872173042799542e+00 1.6461515904512364e+01 -1 0 0
2175 2 1.4485024991880408e+01 3.9694842339238088e+00 1.8974940964793038e+01 0 1 -1
2076 2 1.7036289289596123e+01 4.8744308741998994e+00 1.7395428952350802e+01 -1 0 0
2569 2 1.7089486324925534e+01 2.7602420931449059e+00 2.0138445997427084e+01 0 1 0
3000 2 -9.2016851667581911e-01 8.7643486921170215e+00 1.6189747993580788e+01 0 1 1
3279 2 -1.0031952666218562e+00 8.2396735715652305e+00 1.9257707020020970e+01 2 1 -1
3894 2 1.2906684070506662e+00 1.0435813945537033e+01 1.8741241058368391e+01 0 0 0
3788 2 1.8613318051323438e+00 7.1679596471280362e+00 1.8575282906316968e+01 1 1 1
811 1 5.5518697544999185e-01 1.1048853866117252e+01 1.6196226333462889e+01 1 0 -2
3603 2 -1.7707855428653922e+00 1.1060611391541157e+01 1.7829370138839455e+01 2 0 1
184 1 3.8301457544271704e+00 9.6614125420714263e+00 1.7686354145384154e+01 -1 0 -1
3540 2 4.7046644264896234e+00 7.2590697541986877e+00 1.7126987385530342e+01 0 1 1
2931 2 6.5589007341669738e+00 9.2835685893053057e+00 1.9045891454497802e+01 0 1 1