ITEM: TIMESTEP
0
ITEM: NUMBER OF ATOMS
108
ITEM: BOX BOUNDS pp pp pp
0.0000000000000000e+00 1.0830000000000000e+01
0.0000000000000000e+00 1.0830000000000000e+01
0.0000000000000000e+00 1.0830000000000000e+01
ITEM: ATOMS id type x y z vx vy vz
1 1 0 0 0 -1.46854 -8.81794 1.82885
2 1 1.805 1.805 0 0.437653 6.47521 1.20165
3 1 1.805 0 1.805 -0.000552905 1.71386 -4.78384
4 1 0 1.805 1.805 3.75859 0.601301 3.44872
5 1 3.61 0 0 -9.82755 -2.16447 -0.774468
6 1 5.415 1.805 0 8.91048 -1.24632 -5.35711
7 1 5.415 0 1.805 -1.56181 -6.74584 1.19742
8 1 3.61 1.805 1.805 -0.825045 -7.78931 -1.7559
13 1 0 3.61 0 -4.37362 -6.81769 2.39949
14 1 1.805 5.415 0 2.10834 5.39479 -0.0953627
15 1 1.805 3.61 1.805 -9.04381 -5.9235 3.73585
16 1 0 5.415 1.805 2.71963 3.6414 3.04404
17 1 3.61 3.61 0 1.62803 2.76845 -9.39564
18 1 5.415 5.415 0 3.47388 8.93535 -9.95212
19 1 5.415 3.61 1.805 -4.97314 1.3781 2.21633
20 1 3.61 5.415 1.805 0.362396 -2.74865 -9.07414
37 1 0 0 3.61 2.23503 -1.82025 0.071991
38 1 1.805 1.805 3.61 -1.1399 2.23635 3.24333
39 1 1.805 0 5.415 0.188724 1.80336 0.895426
40 1 0 1.805 5.415 -2.65688 3.99486 2.39447
41 1 3.61 0 3.61 3.15311 0.787506 -10.3166
42 1 5.415 1.805 3.61 1.17496 -4.12358 0.615062
43 1 5.415 0 5.415 -12.5682 9.1638 2.68273
44 1 3.61 1.805 5.415 -2.22335 -0.0296558 -5.4547
49 1 0 3.61 3.61 4.07573 -1.87617 -2.9296
50 1 1.805 5.415 3.61 2.69325 2.58576 -2.11508
51 1 1.805 3.61 5.415 6.64994 5.86264 5.46778
52 1 0 5.415 5.415 -0.220094 -10.9395 -1.07833
53 1 3.61 3.61 3.61 -7.75421 -6.45213 -1.78598
54 1 5.415 5.415 3.61 0.604035 -2.05781 -0.0442943
55 1 5.415 3.61 5.415 -2.47984 8.69368 7.39588
56 1 3.61 5.415 5.415 1.63033 -5.99068 -1.17434
9 1 7.22 0 0 6.5786 8.11361 3.73491
10 1 9.025 1.805 0 4.71005 -6.78078 0.654789
11 1 9.025 0 1.805 -5.90354 0.541165 4.34239
12 1 7.22 1.805 1.805 3.6048 1.22014 1.04923
21 1 7.22 3.61 0 0.101029 -3.13209 -1.06809
22 1 9.025 5.415 0 -7.53969 -1.30211 -2.76698
23 1 9.025 3.61 1.805 -7.15321 4.07278 1.72679
24 1 7.22 5.415 1.805 2.9627 -9.30509 1.07995
45 1 7.22 0 3.61 -1.5074 -3.57836 8.36977
46 1 9.025 1.805 3.61 3.70796 -2.95131 1.7069
47 1 9.025 0 5.415 -1.05495 -3.12014 -3.86088
48 1 7.22 1.805 5.415 3.66828 3.35052 8.01432
57 1 7.22 3.61 3.61 -2.19098 -0.959968 1.10746
58 1 9.025 5.415 3.61 8.02586 -1.30841 5.22719
59 1 9.025 3.61 5.415 -3.81817 3.43681 -6.56001
60 1 7.22 5.415 5.415 2.15782 -4.58199 -2.50189
25 1 0 7.22 0 2.70319 0.822833 1.85335
26 1 1.805 9.025 0 -3.45195 4.91664 2.45457
27 1 1.805 7.22 1.805 -0.214247 -2.726 4.605
28 1 0 9.025 1.805 -0.855843 4.89327 0.387043
29 1 3.61 7.22 0 -2.50838 -4.32321 6.8451
30 1 5.415 9.025 0 7.09401 -7.3308 2.93584
31 1 5.415 7.22 1.805 1.69039 4.5609 2.71893
32 1 3.61 9.025 1.805 4.44469 -5.95922 -5.27811
61 1 0 7.22 3.61 -5.43618 -7.59548 9.96852
62 1 1.805 9.025 3.61 9.92734 1.42856 -4.0097
63 1 1.805 7.22 5.415 1.46141 -7.67363 3.62423
64 1 0 9.025 5.415 -4.88978 3.24366 2.82967
65 1 3.61 7.22 3.61 -0.194892 3.30998 -3.02146
66 1 5.415 9.025 3.61 2.76268 -0.634113 -5.33105
67 1 5.415 7.22 5.415 -6.41516 7.46001 -2.47844
68 1 3.61 9.025 5.415 -6.11165 -2.68771 -2.0255
33 1 7.22 7.22 0 0.348686 1.17917 9.18802
34 1 9.025 9.025 0 1.47811 2.60105 -0.521192
35 1 9.025 7.22 1.805 -3.92218 6.28628 -1.36298
36 1 7.22 9.025 1.805 0.962729 4.5232 1.71773
69 1 7.22 7.22 3.61 0.220922 2.76618 5.73835
70 1 9.025 9.025 3.61 -3.31843 -0.854103 -5.49658
71 1 9.025 7.22 5.415 -8.03204 1.89065 -0.295488
72 1 7.22 9.025 5.415 -5.23254 6.68846 -4.92802
73 1 0 0 7.22 9.47288 3.35921 0.621592
74 1 1.805 1.805 7.22 6.55709 0.339959 -1.35953
75 1 1.805 0 9.025 12.9909 13.5434 4.29593
76 1 0 1.805 9.025 -1.53015 4.01609 -8.13436
77 1 3.61 0 7.22 2.43333 2.99735 4.24907
78 1 5.415 1.805 7.22 -9.04839 4.81589 -0.291363
79 1 5.415 0 9.025 -3.67094 1.70652 -3.13615
80 1 3.61 1.805 9.025 -0.860673 -2.44721 -7.59607
85 1 0 3.61 7.22 8.38203 5.13788 5.10704
86 1 1.805 5.415 7.22 2.2287 -1.43008 -4.64554
87 1 1.805 3.61 9.025 0.281571 8.78653 -7.97546
88 1 0 5.415 9.025 0.145089 -11.526 -2.14946
89 1 3.61 3.61 7.22 -3.20059 -15.358 -6.5013
90 1 5.415 5.415 7.22 5.06901 -0.424443 4.24231
91 1 5.415 3.61 9.025 5.35866 3.13268 -4.2939
92 1 3.61 5.415 9.025 -12.2184 0.956086 -15.5514
81 1 7.22 0 7.22 8.57365 -9.46624 1.85504
82 1 9.025 1.805 7.22 1.64926 -3.67966 -8.62013
83 1 9.025 0 9.025 -7.66884 -9.14756 -6.70062
84 1 7.22 1.805 9.025 1.37067 13.0533 6.43751
93 1 7.22 3.61 7.22 0.420755 1.40636 -4.4001
94 1 9.025 5.415 7.22 1.62436 -0.778103 1.83144
95 1 9.025 3.61 9.025 2.34047 -7.32687 0.961691
96 1 7.22 5.415 9.025 -3.1988 5.79128 1.76362
97 1 0 7.22 7.22 -0.803264 6.73277 2.27227
98 1 1.805 9.025 7.22 -2.51092 -3.13495 8.31941
99 1 1.805 7.22 9.025 -6.42158 4.31575 -5.6215
100 1 0 9.025 9.025 -1.44644 0.31153 4.14539
101 1 3.61 7.22 7.22 4.90953 5.62729 1.90112
102 1 5.415 9.025 7.22 4.98738 3.20055 -1.75225
103 1 5.415 7.22 9.025 -11.0641 4.45343 3.64172
104 1 3.61 9.025 9.025 5.39524 -2.70504 6.92951
105 1 7.22 7.22 7.22 2.06944 -14.5484 3.36998
106 1 9.025 9.025 7.22 1.76401 -3.97145 -0.569443
107 1 9.025 7.22 9.025 4.36411 0.108661 9.76105
108 1 7.22 9.025 9.025 -2.29259 1.15716 1.46765
ITEM: TIMESTEP
1000
ITEM: NUMBER OF ATOMS
108
ITEM: BOX BOUNDS pp pp pp
-3.1218206367605195e-01 1.1142182063676056e+01
-3.1218206367605195e-01 1.1142182063676056e+01
-3.1218206367605195e-01 1.1142182063676056e+01
ITEM: ATOMS id type x y z vx vy vz
1 1 8.68606 -0.225906 0.947861 2.83318 -0.272181 0.835282
2 1 -0.190421 0.599593 -0.131537 -1.64613 0.826646 1.92876
3 1 0.526595 11.0273 2.21533 4.36776 -1.78285 0.0128722
4 1 9.62637 4.65859 11.1011 -1.87557 9.20483 -8.75358
5 1 3.8339 0.348092 0.264738 2.37985 -1.46697 1.86264
6 1 5.37539 2.08871 -0.0680032 -12.0192 -0.654869 1.18831
7 1 4.71911 0.726329 2.54198 -1.77923 -5.89843 6.40849
8 1 1.99794 2.03525 1.02427 -1.29749 6.97503 -4.39393
13 1 1.46022 6.28299 1.49539 -7.83799 -4.69741 -1.47161
14 1 3.37678 5.66999 1.23453 -2.3021 2.24591 7.22919
15 1 0.728925 3.57144 -0.0400137 -9.71102 3.97289 -3.54909
16 1 9.45049 6.85828 1.48143 -1.48351 0.804583 6.51518
17 1 3.20999 3.27568 10.5599 5.44238 0.751637 -1.55949
18 1 5.30873 4.56542 0.691219 3.70418 0.32652 9.17677
19 1 6.5307 2.76052 2.07605 2.30254 5.4905 9.94854
20 1 3.64149 3.28776 1.99896 0.682402 -5.03809 -0.834701
37 1 1.14237 10.9647 7.13043 -0.861639 4.85371 -6.29022
38 1 -0.106722 2.71961 1.84646 -4.16933 -2.76774 -10.0581
39 1 2.79185 0.523829 5.56852 3.74212 -0.6714 -8.67485
40 1 0.362578 3.56619 4.15898 4.41918 1.2104 6.01788
41 1 3.21571 10.7844 3.27694 3.03467 -2.67967 -2.12428
42 1 4.20174 1.90479 4.18247 2.10811 0.715925 -0.092696
43 1 6.13062 0.0631965 7.06005 1.86891 5.95522 0.588933
44 1 4.71863 2.24343 6.52461 -6.69152 -0.578188 2.68756
49 1 10.652 4.8528 2.1844 -7.8154 1.4142 -2.85616
50 1 3.54493 6.6982 3.5311 -12.8282 -7.15849 1.55625
51 1 1.48882 4.25625 2.29701 -1.54753 -1.6991 -5.38221
52 1 0.238021 5.27979 5.84128 -0.238486 -4.28536 -5.3959
53 1 1.55853 1.30035 3.44137 -2.74742 -0.33824 -7.49942
54 1 4.94437 4.46319 3.25112 -3.82728 1.2474 -0.0491252
55 1 3.17449 3.49789 4.65119 -7.13337 8.76896 2.3736
56 1 5.85656 6.36917 4.48998 6.90014 -5.889 -6.05733
9 1 6.56776 0.566624 0.862434 -1.59502 -6.08951 -0.582653
10 1 8.85878 1.85423 1.33411 5.04255 -4.519 6.17745
11 1 7.77805 11.0567 3.09033 -6.91907 -1.34501 -0.614834
12 1 6.59895 1.09744 4.26308 -1.01455 4.14408 5.6085
21 1 5.84898 3.85233 10.0409 -0.100582 3.08962 5.64016
22 1 7.7318 2.99522 10.4698 -6.53459 5.01815 -3.84364
23 1 8.39294 4.34263 1.47917 2.75422 0.837603 7.48505
24 1 7.34009 6.71968 0.679226 -0.65079 0.856471 0.850419
45 1 8.00979 -0.298557 5.52363 -1.02435 2.94224 -1.37444
46 1 10.0332 0.798857 2.83047 -3.0265 -3.60889 0.119949
47 1 10.4463 9.31663 8.09573 -8.16057 -3.41148 6.80315
48 1 9.27037 1.08085 6.85017 4.81702 -7.04843 2.13864
57 1 6.47078 4.26256 4.42694 3.13575 4.9161 2.20531
58 1 9.55044 5.51261 4.11051 -3.97399 5.82944 -2.54679
59 1 9.14183 3.04375 3.45923 4.11798 -6.55995 -10.1139
60 1 6.57779 5.70156 6.82848 0.0944274 5.60187 11.1848
25 1 9.9473 7.80214 10.4368 1.10617 6.46452 -2.65054
26 1 2.03347 10.6572 0.472481 -2.55049 -6.82285 6.08655
27 1 1.54975 7.85994 10.9928 -0.913202 -1.4355 -4.87995
28 1 -0.0544602 8.50604 1.07371 -3.07367 1.45055 -9.84014
29 1 5.37419 6.7253 10.7343 2.55577 -0.51513 -0.0651104
30 1 6.07794 9.04201 -0.300393 4.25214 0.922318 -8.58126
31 1 5.59595 6.83151 2.27642 5.2939 1.87344 2.86709
32 1 3.81542 7.93228 0.768637 11.667 -11.6998 -3.3885
61 1 10.7303 7.3418 4.23284 -3.69171 0.318583 2.28581
62 1 1.95376 8.65248 2.78206 -0.0274544 0.834503 4.01659
63 1 1.6059 7.05747 5.39415 1.66543 -1.49819 0.940582
64 1 0.0516485 7.98402 6.11926 -5.77172 1.24625 4.67943
65 1 4.58814 8.75385 4.03079 -2.57309 -1.51598 3.27284
66 1 5.2639 10.996 4.45404 2.05933 6.32135 0.0507344
67 1 7.10164 9.09277 4.03161 6.17122 -6.36719 -3.44071
68 1 2.56961 9.16202 5.42255 7.86486 -7.42027 3.93587
33 1 7.31404 7.10158 9.54005 -4.28453 -4.04375 -3.65564
34 1 8.02524 9.05608 9.80808 -10.3918 -5.73259 3.23987
35 1 8.50794 8.99014 0.480146 -1.81377 1.38737 3.06316
36 1 5.74973 9.87529 2.16273 -6.53837 7.6135 1.22939
69 1 9.59892 9.30656 2.5711 3.48718 1.07774 7.92031
70 1 0.640806 9.78763 4.45219 2.9054 3.37664 8.88291
71 1 9.05511 6.14321 6.22179 1.83678 3.08042 -9.67055
72 1 9.27416 8.30993 5.11795 1.85554 8.18994 -0.222393
73 1 1.57337 9.70832 9.18177 9.14941 5.70575 7.83492
74 1 2.3694 1.09476 7.59813 1.724 1.14836 3.9739
75 1 1.19759 1.38939 10.2947 6.31568 0.544748 0.736193
76 1 10.1494 1.97423 10.5984 0.21522 -2.69055 9.87993
77 1 3.87265 10.435 7.77258 5.91604 -12.5697 -2.66718
78 1 5.99866 1.78632 8.71518 -4.78061 -8.61853 3.7106
79 1 6.07109 11.0412 9.89712 4.93012 1.5962 2.8756
80 1 3.68434 1.09135 9.08243 13.376 -4.2132 4.32596
85 1 10.9825 1.47108 7.54359 4.54982 -5.75576 0.138637
86 1 2.13249 6.0194 7.6433 3.98198 -0.0814664 -1.76677
87 1 1.97497 3.47087 8.9598 2.34273 -2.61545 2.27224
88 1 10.4922 3.89079 7.84908 -5.40136 -10.6326 -2.38112
89 1 2.29242 3.0144 6.52658 -2.86195 -3.35249 -9.6742
90 1 3.93253 5.15523 5.90209 4.05165 4.41084 -11.964
91 1 4.37108 3.76314 8.43036 -5.65904 7.81519 -1.22084
92 1 3.0599 5.70154 10.034 -2.58107 12.1223 -10.3686
81 1 8.34366 10.0195 7.57266 -2.21703 -2.76295 -3.28205
82 1 10.1299 10.2178 5.71191 -1.75065 -8.92336 -5.10996
83 1 10.3566 0.0463656 8.82704 1.60368 -0.386528 2.9429
84 1 8.16587 0.316756 9.86145 1.91676 -3.28828 0.804336
93 1 6.70301 3.37425 7.38781 -10.5736 8.08334 3.13725
94 1 8.92903 3.82743 5.75947 -1.75771 4.84237 -4.13706
95 1 8.37236 2.49894 8.36921 -1.61957 -1.00131 -4.48587
96 1 4.49755 6.25911 8.28057 6.44958 -2.49439 -5.91109
97 1 0.0715311 7.05632 8.27404 -0.327304 2.03891 3.21786
98 1 1.94427 8.00612 7.21813 8.07756 -6.89035 -7.93064
99 1 3.20124 7.90449 9.32667 -2.76881 -0.18569 0.578082
100 1 10.758 9.89361 10.1877 -1.67018 -5.16896 1.95862
101 1 4.09055 7.40373 5.91137 -1.11022 6.31309 -4.60522
102 1 5.91255 9.67813 6.12705 3.55021 10.8603 -4.0676
103 1 5.81807 9.14066 8.35716 -3.18635 4.99936 3.36466
104 1 3.62654 10.437 10.0258 -4.00231 3.7774 -0.088377
105 1 8.04761 6.60274 3.53443 -1.98037 5.53575 -4.38652
106 1 9.05098 7.64269 8.07229 7.95082 2.84966 2.65924
107 1 8.37051 5.12805 8.74486 5.75924 -5.55634 6.57472
108 1 7.09052 7.92555 6.79187 8.36171 -2.10116 4.56029
ITEM: TIMESTEP
2000
ITEM: NUMBER OF ATOMS
108
ITEM: BOX BOUNDS pp pp pp
-2.7361828334264882e-01 1.1103618283342648e+01
-2.7361828334264882e-01 1.1103618283342648e+01
-2.7361828334264882e-01 1.1103618283342648e+01
ITEM: ATOMS id type x y z vx vy vz
2 1 1.20612 9.92407 2.03565 -3.06615 3.68594 -6.45771
5 1 4.15262 3.35039 2.19688 1.33125 1.0266 3.09798
6 1 7.05305 1.28814 1.08582 -7.67233 6.39924 -3.24007
7 1 4.42623 9.2203 1.00831 -4.56645 8.18979 2.70153
8 1 2.67732 1.74774 2.87397 2.37473 -3.36975 2.29557
20 1 1.96046 3.90109 1.5428 1.45963 -14.179 -9.41702
39 1 3.25858 10.7595 2.61195 -1.34398 1.56444 -3.17203
40 1 8.60278 3.6137 2.39514 -4.4114 -0.448371 -2.54776
42 1 0.34545 3.67445 3.37731 -6.52581 2.35667 1.51761
51 1 10.0005 6.06292 3.04751 -1.35708 5.09354 5.6457
53 1 6.53572 3.50611 3.89447 -2.52832 -3.68427 -2.12288
54 1 5.8734 5.50783 -0.0659112 6.68163 -10.894 12.0008
55 1 9.77227 5.0439 7.08558 -0.636295 4.00431 -2.75787
66 1 5.43593 0.0835375 5.93129 -0.090346 1.4988 -5.45779
18 1 6.95563 7.57812 11.2093 -2.70986 -1.48137 4.56291
19 1 6.10166 2.406 10.1526 -5.85508 1.19716 -1.35924
38 1 10.3288 1.04111 4.3132 -2.33065 3.53997 -8.92365
49 1 10.1745 3.11348 1.2317 3.84481 -5.46636 3.11678
9 1 5.15585 3.868 8.02386 -2.26065 5.27987 0.271048
10 1 8.95643 1.09928 0.493278 6.5151 -3.94133 5.17032
12 1 8.21332 4.40907 4.90133 -3.67988 5.50652 -6.27103
23 1 5.99073 7.27584 1.88911 0.725846 -0.380786 -1.07156
46 1 8.39666 0.542584 5.57686 -5.69097 -2.68443 -0.740839
57 1 6.81519 5.35161 2.83245 1.67892 0.0371948 2.30905
58 1 10.3162 8.0299 4.10923 4.538 3.72732 -0.212446
59 1 8.67055 5.777 1.31444 -0.39256 -0.30896 1.1418
3 1 0.814809 1.81049 5.44914 5.19039 5.71596 3.02597
13 1 0.402737 6.51001 9.4559 -5.34263 -10.4221 -8.78877
14 1 4.72991 1.44269 0.107958 0.956393 2.57788 6.68297
41 1 4.62465 9.47449 4.91763 0.293957 -0.226525 -0.627124
50 1 2.04998 5.74307 3.63014 10.0643 -1.78427 -1.69909
26 1 0.652576 8.93195 10.8144 -8.45489 -3.28391 4.52299
28 1 2.09777 7.65805 0.983673 -0.0707342 -0.426686 -1.6272
32 1 0.983051 4.24564 -0.366984 5.10771 -4.55678 -7.10805
62 1 3.7724 7.86451 3.05965 3.37986 -5.78188 13.4459
63 1 3.03807 7.38579 5.52941 4.90059 -2.55981 2.04777
65 1 3.78389 5.87197 2.07656 -1.19764 -4.21518 0.141541
68 1 5.52566 7.3263 6.48165 1.94085 -7.46508 -10.7999
36 1 3.94435 6.81368 0.237689 -5.66471 -7.85957 6.48409
70 1 1.91027 7.61114 3.59637 1.83076 -8.3571 0.708459
1 1 0.112016 10.1684 3.96794 -2.129 0.58667 -3.34646
16 1 9.98837 10.5471 1.84895 5.95251 -5.20087 -4.5314
56 1 6.91633 7.42016 8.38321 10.2358 4.32098 5.16571
11 1 5.01705 1.10186 3.70225 -3.88268 6.18629 2.09604
24 1 9.13768 7.53197 -0.439985 5.20171 -6.97555 -4.97669
45 1 8.83198 2.65548 6.5986 -2.00459 8.5886 -5.83853
31 1 5.80994 9.34639 2.66974 -6.45779 -1.80851 0.0387394
61 1 0.0862123 5.70959 5.07238 -2.456 2.11619 -3.294
67 1 7.2871 9.46726 4.82168 -4.79364 -3.81084 -2.88041
35 1 7.22581 10.2018 0.318554 -2.3881 -0.892281 6.07069
69 1 8.0372 10.9709 2.53977 -2.80009 -1.1584 -1.69202
72 1 9.43883 9.61488 5.11066 -0.0103037 -0.547792 0.301681
105 1 8.27266 7.92758 2.70295 7.24188 8.42136 -3.80849
15 1 4.00361 4.09667 10.6542 -2.71202 5.06945 2.32842
17 1 5.28632 -0.0336035 1.83081 7.22425 -0.768508 -0.632463
44 1 6.31485 3.35027 1.29473 -0.387715 0.798776 2.80705
52 1 0.535165 8.53896 5.84753 -4.4068 -5.86081 -2.1549
74 1 1.33614 1.24815 7.50118 -4.27812 4.07056 1.96933
75 1 2.59931 10.9016 0.112367 -3.56306 4.48941 4.90914
80 1 5.66423 10.652 10.3094 -5.61953 2.25123 0.877462
85 1 10.1924 1.42138 7.1468 1.17563 3.58792 -2.46362
87 1 10.2969 3.43168 8.90378 3.90856 -7.18853 0.314272
89 1 10.4812 3.54518 5.56878 -1.68212 -3.09702 -0.556835
90 1 3.92835 3.00058 4.43275 2.61785 -3.26403 11.6803
91 1 2.91324 0.729904 5.16268 2.58732 -1.18529 2.04693
4 1 0.60331 5.53803 1.98039 7.51633 1.76096 0.314615
43 1 3.65967 4.91026 6.62845 -5.87091 11.3572 -9.79692
21 1 7.58732 4.81224 9.1846 -4.19454 0.206965 -8.83085
22 1 7.96855 1.54941 3.27203 -6.39565 2.59849 3.7935
48 1 10.6749 1.97545 10.4825 13.9307 -9.42249 0.14477
76 1 7.95035 3.68004 -0.0202023 10.0799 -7.06293 -0.249019
78 1 7.9733 0.362048 9.57518 2.57074 5.19675 -7.31052
79 1 3.46954 1.56634 6.89652 2.80129 4.40857 -0.0982535
88 1 5.54083 0.91462 8.32318 -4.26774 -3.36305 -2.78805
83 1 2.05404 1.78633 10.9992 -2.40923 2.98905 0.685248
84 1 5.10976 9.24241 7.42604 7.79799 -3.05875 -4.69892
93 1 3.55924 0.82091 9.55422 3.12738 -4.72926 10.4282
94 1 8.97988 6.31284 5.48398 0.716028 19.4985 -0.400173
95 1 8.26992 2.29837 8.78037 9.34909 1.29126 1.39137
107 1 5.1025 6.09268 9.47922 5.73711 -4.43933 -3.94843
37 1 2.47021 9.96129 5.02323 -7.57788 -1.11084 -0.355006
27 1 0.806212 8.97415 8.23876 0.070981 10.4511 -4.67123
29 1 2.62054 5.19779 9.14564 -7.72187 -0.427913 -2.19169
73 1 1.33659 -0.14301 9.31852 2.59693 2.29533 2.49264
77 1 3.1969 10.6284 7.46455 -4.4994 0.733112 -4.62826
86 1 2.02586 3.7222 5.20453 -0.529528 -2.60023 -0.846318
92 1 2.79091 2.80971 9.00254 5.66088 -1.48849 4.74518
96 1 4.66303 4.99289 4.1095 -11.4367 1.67179 3.57787
97 1 1.0476 3.51887 7.64654 3.4217 11.9833 3.08672
98 1 1.75793 7.03513 7.64367 -4.57249 -13.1274 -3.89062
99 1 3.89638 7.09877 8.04596 -3.52462 5.40466 -3.14849
101 1 6.49193 7.10523 4.66963 7.60321 -5.60861 -4.64874
104 1 3.01203 9.22961 9.24485 0.0190466 1.7423 2.59104
47 1 -0.0513942 -0.265355 -0.0417847 -7.74242 -3.64364 2.82504
60 1 6.04802 2.65049 6.3832 3.32588 3.13878 6.3132
25 1 10.7828 8.52113 2.00027 -1.81361 -0.0732105 4.719
30 1 7.9604 9.45549 9.53443 -5.40665 2.30991 -7.78423
64 1 9.74128 8.98596 7.84314 -3.71157 2.05828 6.07127
33 1 6.63544 5.20758 6.25921 10.4242 -8.7641 -3.92038
34 1 9.91759 9.65881 10.6052 1.59119 10.3671 5.36115
71 1 10.9878 6.95752 7.28709 -1.45059 -0.295935 -1.68447
81 1 10.0542 -0.324147 8.72497 -2.61827 -6.08886 4.59005
82 1 -0.0025493 10.9891 6.80073 -2.48462 -0.638964 5.88863
100 1 0.37218 1.11675 1.80941 5.9547 3.32649 0.0220978
102 1 7.722 9.32159 7.17442 1.33521 2.29277 1.44638
103 1 5.11694 8.1728 9.52057 3.2676 -4.41957 -1.12613
106 1 10.138 4.94718 10.5882 -6.57237 10.5568 4.07329
108 1 9.35905 7.02057 9.04727 2.36234 -3.6288 1.5367
ITEM: TIMESTEP
3000
ITEM: NUMBER OF ATOMS
108
ITEM: BOX BOUNDS pp pp pp
-2.8447906208325868e-01 1.1114479062083266e+01
-2.8447906208325868e-01 1.1114479062083266e+01
-2.8447906208325868e-01 1.1114479062083266e+01
ITEM: ATOMS id type x y z vx vy vz
5 1 3.19391 2.42034 3.39043 -8.41423 7.41988 3.52579
8 1 0.4746 3.60673 3.09466 9.43345 5.77299 -1.16824
20 1 3.25128 4.9829 11.1126 -2.08959 -2.05124 9.66339
42 1 9.01304 6.09004 0.868737 -5.38453 2.25099 -5.98814
14 1 3.82861 1.4778 0.93115 -2.33935 -3.90507 1.41337
11 1 1.61457 1.2851 3.75239 1.31042 2.1154 -0.614739
90 1 2.55978 4.80549 4.69397 -11.9406 -6.24345 2.08623
91 1 2.0945 10.3004 7.4175 -4.7053 0.6182 -0.323852
86 1 3.41394 2.77165 6.26489 -0.685003 5.8849 -6.01904
96 1 4.58031 5.75341 3.3374 -8.27743 7.45664 -0.18436
100 1 1.02757 2.53675 1.44499 -10.7993 -6.82681 -5.10244
6 1 7.46807 -0.34055 3.55851 -7.5812 -8.77191 7.1195
40 1 8.01545 4.70401 10.1688 4.45636 2.12757 9.97488
53 1 4.9193 3.41999 4.40395 3.15521 3.58499 -13.2079
54 1 6.02142 7.32031 9.75433 3.65359 1.20152 -1.50486
38 1 10.3589 1.08146 0.20263 0.345998 -6.41045 -3.5486
49 1 6.88385 3.15373 0.28968 -5.20606 -1.03858 14.3762
10 1 10.6053 1.18573 2.60732 -6.92424 -2.68222 -4.38742
12 1 9.15284 3.01105 1.35178 -8.87673 13.4369 3.95286
57 1 4.84184 3.27289 1.83095 -6.84757 6.50206 6.00924
17 1 4.78657 10.4784 3.34668 7.2819 -8.39673 -0.43874
44 1 5.95588 1.26446 10.5029 4.28811 5.15466 -11.6051
22 1 6.28421 2.00358 3.72884 -3.36793 1.91017 16.7373
76 1 7.72433 1.04556 1.08513 3.36497 -1.03119 -3.19863
2 1 2.56366 9.66458 4.6394 -1.30774 -7.49431 3.36152
7 1 3.29618 8.61223 2.40495 7.31431 1.40525 6.56502
39 1 1.45831 10.3485 3.09136 -3.79192 1.32043 13.1004
41 1 3.99051 0.748271 5.08086 -0.243829 -5.69187 5.74782
50 1 2.79779 4.48383 2.16504 -4.88742 -1.12197 2.18622
28 1 1.45092 6.45432 0.81786 7.63383 -1.0381 1.28092
62 1 6.90602 8.059 4.34102 13.0607 -0.46045 4.68901
65 1 3.1115 7.39094 4.59151 -2.06229 -0.764864 -12.0436
36 1 1.50299 6.45264 9.91282 0.769853 -6.72235 -0.572647
70 1 2.82677 7.77676 6.5824 2.112 -5.57667 10.3308
1 1 1.41675 8.26844 2.98679 2.66515 -4.05376 -1.31108
61 1 10.7583 6.76704 2.47547 1.0827 8.50592 8.10944
75 1 3.35682 10.4814 1.08469 -0.149369 6.49624 -4.21307
4 1 0.691704 4.25774 -0.0900543 1.1185 1.10919 -0.780376
37 1 3.24082 5.79941 8.23102 0.487667 0.992454 0.131967
47 1 2.09056 2.35831 10.2649 -0.0205021 13.1545 0.961834
51 1 0.0981195 8.29842 0.656664 4.55603 -6.5212 -1.26589
18 1 6.61163 6.55 0.63332 3.85051 7.64785 6.33215
23 1 5.93564 7.69815 2.67405 2.96199 -2.36791 8.29677
58 1 9.61807 10.5334 4.31035 -2.96736 -1.27258 -5.81558
59 1 8.57905 7.47404 10.3777 0.33497 6.28265 -5.97914
16 1 0.570725 10.8555 0.742996 5.47276 4.61753 -4.11433
31 1 4.62079 8.92278 4.99441 6.1559 -4.4283 -2.3855
67 1 6.64617 9.58059 6.22095 11.9398 -0.108174 -9.09286
35 1 8.39547 8.5848 1.45965 1.01006 -6.05269 -4.61517
69 1 -0.147095 1.73764 7.00107 -6.71825 -12.3528 1.87893
72 1 10.3138 6.67864 6.64296 0.621524 -6.73197 -4.58069
105 1 0.096063 8.63696 5.26889 4.83315 11.495 3.35688
101 1 10.0266 6.37487 4.60471 -1.06979 -2.96768 -6.21861
25 1 10.7405 6.23245 10.7629 -8.67437 -0.0970033 -3.76558
9 1 6.7576 5.60432 8.01075 14.1768 1.48255 -1.85719
3 1 0.055324 -0.546442 4.93407 1.00923 -10.7063 5.2726
32 1 1.44327 3.27987 7.83847 1.95436 0.18523 -3.59978
15 1 4.44353 6.57903 1.13483 0.827307 13.6905 6.87651
74 1 2.08387 0.922758 5.98982 3.10481 -7.03054 0.57304
43 1 3.84418 6.82588 10.3419 -5.96083 -1.98224 -7.37239
79 1 5.94002 2.29355 6.27498 0.903816 0.548131 9.86039
83 1 2.92603 1.74752 7.97575 -3.89725 0.611115 -6.99981
93 1 3.0249 10.6462 9.38863 4.50377 0.40187 2.20211
29 1 2.65818 4.11823 9.36246 -2.07156 -4.89618 -3.36556
73 1 0.243606 10.365 9.83789 2.74433 -1.89853 -9.53836
92 1 4.08885 2.62992 9.49297 -5.59915 4.30791 13.708
97 1 -0.259639 4.78472 5.32165 -0.714695 0.498951 -6.68172
55 1 7.88546 6.73173 3.21241 -7.15344 3.27996 1.42556
66 1 4.64411 0.301734 7.36631 3.46464 -9.57908 -7.53501
19 1 6.87644 3.10785 8.81819 3.58729 -3.03816 -1.93568
46 1 6.98922 0.35502 5.58147 -3.8465 -10.0761 -2.22377
45 1 7.53773 4.14434 2.70277 -0.130368 -4.07092 7.28109
85 1 9.14346 2.00028 8.59499 -1.23253 5.73144 -6.98612
87 1 9.07323 6.05012 8.36924 1.50792 4.56284 3.93855
89 1 9.79158 4.7808 2.93991 -0.613667 -7.32918 3.6511
21 1 9.69747 4.35547 7.55638 -1.6525 -1.54293 -5.56543
48 1 0.76225 0.408231 8.50702 -4.94878 6.96688 2.35379
78 1 4.92311 10.6911 10.8491 -0.428679 0.553851 9.97719
88 1 4.44412 9.76119 6.96692 2.91346 -0.999785 -2.70887
95 1 8.71492 2.36427 10.6322 -0.519669 3.99107 -5.81553
60 1 7.87733 2.7308 6.12149 7.763 -1.40403 -1.93359
33 1 6.48282 5.13918 4.53905 -1.28671 -1.57795 -6.29908
106 1 -0.0907729 2.54517 9.19646 0.123701 -7.3371 -5.17029
13 1 0.314846 5.26109 8.27197 -5.32273 5.51612 -2.51528
26 1 9.90492 9.74922 -0.157284 -3.90492 3.87769 -1.99831
63 1 4.7443 4.06722 7.58196 0.0628395 -0.60168 4.69964
52 1 1.31932 6.34828 5.74072 11.1577 -8.27057 1.84263
84 1 7.26135 0.348094 7.85902 0.341963 -0.203267 -1.46361
107 1 3.28407 8.73532 8.97023 -2.7195 2.82273 -8.91374
27 1 11.0119 7.99155 9.43799 -1.70494 3.33311 -1.84022
77 1 5.18044 7.4564 7.86532 2.35393 5.96697 -9.08773
98 1 1.32848 2.88453 5.37023 2.45262 -3.85048 -5.63253
99 1 5.71119 4.6706 10.0123 -9.21637 0.244139 -1.74427
104 1 2.03245 8.66099 0.123849 -3.27457 6.87582 -4.77525
82 1 9.03132 0.146856 9.90908 -0.810413 5.31321 -2.18823
103 1 5.97471 9.79608 9.05697 2.21499 4.64262 0.999432
68 1 7.43689 7.16795 6.50582 2.66864 0.0708711 1.05743
56 1 5.67697 8.68285 0.581422 5.90189 -0.473758 -1.5864
24 1 10.7495 8.97177 3.13108 -7.79703 2.63651 -1.02397
80 1 6.34482 10.6254 1.89638 -0.0578192 -0.707621 6.25845
94 1 9.26519 8.44153 5.62624 -2.67927 -3.9337 0.347245
30 1 7.95536 8.65632 8.64687 5.83711 -0.707335 0.564449
64 1 10.9464 9.94805 7.54072 1.38223 -5.75071 0.788049
34 1 8.79774 10.99 1.98511 -1.01282 -0.215014 9.49392
71 1 8.39811 5.1244 5.8375 5.59965 2.8361 4.64633
81 1 9.36953 0.119747 6.44326 4.97487 3.93797 3.32126
102 1 10.3237 2.82696 4.84959 -5.21408 -5.80378 1.02407
108 1 7.42006 10.1171 -0.195351 0.298494 3.81928 -0.947287
ITEM: TIMESTEP
4000
ITEM: NUMBER OF ATOMS
108
ITEM: BOX BOUNDS pp pp pp
-3.2772889169096331e-01 1.1157728891690958e+01
-3.2772889169096331e-01 1.1157728891690958e+01
-3.2772889169096331e-01 1.1157728891690958e+01
ITEM: ATOMS id type x y z vx vy vz
5 1 4.92999 0.538132 5.22381 6.15578 -6.08975 -3.05697
8 1 10.3112 5.00067 -0.834372 4.61259 4.16434 -13.5948
20 1 2.89034 3.88868 9.49015 -8.15928 -2.34186 1.00585
14 1 3.05624 2.1995 0.127541 -9.36808 -3.1795 -1.77791
11 1 4.01752 0.519064 1.29832 0.665597 -1.40235 -5.15931
90 1 4.98714 4.70322 3.85539 12.8174 -0.960359 4.17374
100 1 9.4647 4.87052 4.12973 -4.73329 0.470222 7.22531
53 1 5.58741 2.25079 2.60281 1.11627 2.82666 1.76031
57 1 3.54037 6.39172 10.5507 -2.11343 -6.24053 2.60922
41 1 4.8874 9.15207 6.37938 -2.58705 0.780601 -4.20171
50 1 2.29483 4.12887 1.67513 -2.40913 0.390957 -0.540865
4 1 11.2917 6.38547 8.75069 3.17994 5.57449 5.95955
97 1 0.545446 5.06131 4.2111 -2.2001 4.85336 1.11609
98 1 1.90578 1.31725 5.63096 -15.4198 2.65578 -5.45098
38 1 10.0464 1.0061 0.934869 -6.07541 2.51369 8.09833
49 1 6.75617 4.13616 0.273097 1.4983 -1.19343 -0.975261
10 1 9.04742 11.0999 4.80753 -8.40646 -3.28294 1.69975
12 1 8.96131 3.38915 0.855506 5.0773 -2.62835 5.57001
22 1 3.5013 2.22678 4.04138 0.160721 -12.3489 2.76967
76 1 8.41616 1.59656 10.4645 3.07742 -2.07661 7.46084
45 1 7.24744 4.75166 3.30198 5.5744 5.5733 -5.03494
89 1 9.29278 2.13516 3.90143 -2.03817 -2.52937 -4.88969
33 1 5.93199 9.11912 8.43996 -9.35722 -2.48394 13.2464
102 1 10.5846 3.40415 5.30393 4.16264 1.04382 -0.117054
96 1 4.89389 4.53859 1.75546 2.53778 7.15665 0.637069
17 1 5.20576 9.63694 3.9049 1.84987 4.36232 -3.04655
2 1 1.40749 6.54411 1.97786 8.36178 5.79101 2.29434
7 1 3.77286 7.87936 3.60892 -2.5553 -4.82204 -1.95125
39 1 9.65257 9.386 2.74061 -2.02022 -3.16957 8.38254
28 1 3.50141 6.96796 1.78993 3.25109 1.86138 6.57368
65 1 -0.425031 4.95992 1.75848 -9.78356 1.56579 0.04642
1 1 1.66411 8.55145 2.90009 4.0596 -0.137366 3.48142
75 1 2.50243 5.95956 3.97685 11.1733 -0.349611 -12.0868
51 1 0.828115 9.22067 10.4043 -1.49243 2.12512 -0.446797
16 1 8.88078 0.105167 2.28175 4.31849 1.30894 -1.08566
31 1 7.16138 8.17756 6.15411 -2.34244 -1.3156 -0.307713
3 1 2.50785 -0.0108531 3.69056 1.17594 -0.414103 -6.62261
15 1 5.19829 8.60639 1.10864 7.11081 3.20798 -5.37069
78 1 5.66007 1.49768 11.3539 -2.25099 -1.30153 4.79244
104 1 6.0669 11.1392 1.81196 -2.73926 1.286 -1.33614
42 1 9.35752 6.0065 1.51332 3.29329 0.826985 -9.2995
6 1 7.49889 9.77585 3.2713 0.952817 -2.42514 8.51813
62 1 8.40064 6.26056 5.41712 -5.95612 -9.74373 5.97686
61 1 1.05126 5.25872 10.7562 0.191665 -14.8356 -3.20364
18 1 8.11119 7.32763 3.30223 0.940091 5.94877 0.474679
23 1 6.26159 6.92273 2.69198 -1.70259 -0.104851 5.15648
58 1 7.5165 10.6843 0.151602 3.58433 -2.9433 -10.8709
35 1 11.1703 7.20874 0.419154 4.22089 -4.58344 -9.68246
101 1 7.89689 3.72264 5.26248 -16.7385 -0.782919 5.48968
55 1 6.25571 5.21098 5.9062 -8.04867 5.46782 -4.70517
26 1 2.55203 9.34052 7.60925 5.51612 8.83126 -1.55193
56 1 8.52514 7.97843 0.4717 8.56266 -5.238 -7.1937
24 1 10.7141 7.23138 4.10715 -5.35042 -8.32234 0.703892
80 1 7.68164 1.44063 1.29361 -1.85363 10.4407 -0.524228
34 1 9.9136 9.75687 0.206346 0.324115 2.60279 -0.393351
86 1 4.0682 1.72479 6.86966 3.74947 -5.40202 10.2476
47 1 0.333586 2.61971 1.21603 -14.1752 4.23302 1.81934
32 1 2.27716 5.64114 6.28807 3.6845 7.98836 -0.235414
74 1 1.83005 0.237157 8.60796 2.32658 -5.47332 4.52114
83 1 2.25233 3.1718 7.55278 6.21969 3.29988 1.28209
29 1 0.56422 3.83777 8.70061 1.89519 -16.7419 -6.10481
92 1 2.57802 11.107 10.5615 -0.941561 4.80563 -3.04627
66 1 3.59264 9.94928 1.95361 1.87217 -0.188166 -0.899283
48 1 1.20668 0.255868 0.907056 -0.280192 0.479354 11.5903
106 1 10.4039 2.4903 10.3338 2.52983 -6.90043 -0.715456
63 1 1.99912 3.64682 5.18867 -12.4128 -0.604605 3.9596
99 1 0.914948 2.1374 10.348 2.2772 9.91141 1.2929
40 1 5.47065 5.98776 0.141611 -2.46328 3.21509 -5.86932
44 1 4.69369 3.7636 11.0679 4.13221 4.25805 -0.891324
69 1 -0.157576 2.21027 6.78825 -4.2488 3.88523 0.103525
79 1 3.47289 1.52319 9.61186 -3.09241 -6.45439 1.62934
19 1 6.8066 3.29284 7.59012 -2.70492 2.85066 3.039
46 1 7.04433 0.577132 3.66121 -0.0955726 -3.41878 -12.1931
85 1 9.47789 1.82708 8.3809 8.49358 -6.14263 -4.48434
21 1 9.25848 4.25387 7.89954 3.26114 4.0106 8.09936
95 1 7.58308 4.36084 9.81549 -2.17897 7.29561 -2.14652
60 1 5.4754 2.71103 4.73511 -8.14302 2.7188 1.81663
84 1 6.82882 0.934164 7.23143 2.38486 -1.51848 -9.50216
82 1 6.61685 -0.0961756 9.4068 -0.745696 1.40531 9.41792
71 1 9.02017 1.54776 6.47486 12.7554 -5.49349 -1.12307
81 1 11.2948 -0.134866 7.55187 8.21069 -10.0241 0.564252
91 1 2.67571 10.5364 6.04536 -3.67223 5.71306 -8.64969
36 1 1.80735 7.90573 8.86967 -3.1345 10.7932 2.23386
70 1 5.10221 7.13218 5.01184 4.56619 -2.56362 2.67899
37 1 5.40744 4.66495 8.96198 -1.26461 0.644322 2.59783
105 1 -0.321186 0.392868 4.81623 3.14701 -3.62318 -6.65013
43 1 3.97467 8.99013 9.50949 -1.56069 -4.96599 -8.0711
93 1 1.23305 2.43287 3.24468 -4.03391 -2.98755 -5.29553
73 1 1.89772 8.31307 0.405311 0.478647 8.91372 1.00355
88 1 6.34129 10.8561 6.17801 -2.09433 4.63295 4.15966
13 1 0.41703 7.44089 6.69899 5.86391 -4.24328 -5.32124
52 1 2.28708 5.76368 8.68248 0.667915 3.54249 8.11987
107 1 5.22333 6.90465 7.79474 8.82951 -4.45921 -9.89068
77 1 4.10305 4.12555 6.59739 5.55108 0.37879 2.94943
54 1 7.21388 8.55291 10.462 -6.53024 2.15221 -3.80982
59 1 9.84771 8.78539 9.29975 6.61453 -5.04546 5.1072
67 1 9.11949 8.75346 5.32297 6.05414 2.93609 0.109218
72 1 10.5802 5.36855 6.75231 -1.35387 -4.61943 -0.401982
25 1 8.75238 6.58777 9.84442 2.12884 -0.381355 5.16523
9 1 7.54032 5.81866 7.75638 7.03036 1.64397 8.82188
87 1 9.37193 7.33522 7.44751 -5.10798 7.24975 -4.79929
27 1 -0.401013 0.132543 10.0124 -15.9508 2.35145 8.52046
103 1 4.67341 -0.15278 8.40599 -11.3857 -1.05695 -1.6899
68 1 0.0153366 9.38916 4.93792 6.7297 6.58034 -3.45374
94 1 8.91727 10.8038 7.31777 7.00029 -3.59709 5.64549
30 1 10.9268 9.13862 7.1765 0.396625 2.79349 4.51036
64 1 8.90115 10.6265 9.73039 -0.904345 -1.72118 2.86836
108 1 4.90949 10.5999 -0.360536 -4.19731 0.560143 -9.37441
ITEM: TIMESTEP
5000
ITEM: NUMBER OF ATOMS
108
ITEM: BOX BOUNDS pp pp pp
-2.6789021834010196e-01 1.1097890218340124e+01